       N       E                     dE             d eps       ncg     rms          rms(c)
DAV:   1     0.222853011308E+03    0.22285E+03   -0.22419E+04 27672   0.111E+03
DAV:   2    -0.378020417653E+02   -0.26066E+03   -0.22934E+03 34488   0.238E+02
DAV:   3    -0.505216243938E+02   -0.12720E+02   -0.12651E+02 30216   0.562E+01
DAV:   4    -0.505851431174E+02   -0.63519E-01   -0.63519E-01 39096   0.412E+00
DAV:   5    -0.505855651105E+02   -0.42199E-03   -0.42200E-03 30480   0.346E-01    0.304E+01
RMM:   6    -0.480693044986E+02    0.25163E+01   -0.71546E+01 28739   0.484E+01    0.400E+01
RMM:   7    -0.377399068155E+02    0.10329E+02   -0.20185E+01 27648   0.240E+01    0.622E+00
RMM:   8    -0.386605870161E+02   -0.92068E+00   -0.59253E-01 27747   0.489E+00    0.354E+00
RMM:   9    -0.389387067286E+02   -0.27812E+00   -0.16196E-01 28112   0.262E+00    0.252E+00
RMM:  10    -0.391580996248E+02   -0.21939E+00   -0.64670E-02 27712   0.175E+00    0.145E+00
RMM:  11    -0.392687466655E+02   -0.11065E+00   -0.44778E-02 27801   0.145E+00    0.669E-01
RMM:  12    -0.392754188205E+02   -0.66722E-02   -0.80227E-03 28059   0.592E-01    0.357E-01
RMM:  13    -0.392771851964E+02   -0.17664E-02   -0.27538E-03 27657   0.347E-01    0.143E-01
RMM:  14    -0.392775081294E+02   -0.32293E-03   -0.31336E-04 20303   0.129E-01
   1 F= -.39277508E+02 E0= -.39277508E+02  d E =-.392775E+02  mag=     0.0191
       N       E                     dE             d eps       ncg     rms          rms(c)
DAV:   1    -0.401576983691E+02   -0.88051E+00   -0.10676E+02 28392   0.536E+01    0.651E+00
RMM:   2    -0.397498945210E+02    0.40780E+00   -0.32540E+00 27648   0.108E+01    0.280E+00
RMM:   3    -0.396570539177E+02    0.92841E-01   -0.37866E-01 27692   0.340E+00    0.210E+00
RMM:   4    -0.395953180764E+02    0.61736E-01   -0.40408E-02 28585   0.124E+00    0.670E-01
RMM:   5    -0.395863259493E+02    0.89921E-02   -0.63843E-03 27692   0.425E-01    0.288E-01
RMM:   6    -0.395861671099E+02    0.15884E-03   -0.54686E-04 20763   0.168E-01
   2 F= -.39586167E+02 E0= -.39586167E+02  d E =-.308659E+00  mag=     0.0182
       N       E                     dE             d eps       ncg     rms          rms(c)
DAV:   1    -0.396144337546E+02   -0.28108E-01   -0.45360E+00 36720   0.115E+01    0.136E+00
RMM:   2    -0.395994955029E+02    0.14938E-01   -0.14117E-01 27648   0.225E+00    0.664E-01
RMM:   3    -0.395942193819E+02    0.52761E-02   -0.16923E-02 27663   0.711E-01    0.459E-01
RMM:   4    -0.395918588099E+02    0.23606E-02   -0.18869E-03 26011   0.267E-01    0.228E-01
RMM:   5    -0.395915970402E+02    0.26177E-03   -0.51468E-04 21310   0.145E-01    0.199E-01
RMM:   6    -0.395914224583E+02    0.17458E-03   -0.31781E-04 19655   0.117E-01
   3 F= -.39591422E+02 E0= -.39591422E+02  d E =-.313914E+00  mag=     0.0116
       N       E                     dE             d eps       ncg     rms          rms(c)
DAV:   1    -0.398581971680E+02   -0.26660E+00   -0.20138E+01 27744   0.250E+01    0.330E+00
RMM:   2    -0.397209628087E+02    0.13723E+00   -0.76636E-01 27648   0.535E+00    0.165E+00
RMM:   3    -0.396997114362E+02    0.21251E-01   -0.11684E-01 27664   0.183E+00    0.108E+00
RMM:   4    -0.396856793178E+02    0.14032E-01   -0.13435E-02 28111   0.718E-01    0.364E-01
RMM:   5    -0.396868275925E+02   -0.11483E-02   -0.39044E-03 27719   0.398E-01    0.266E-01
RMM:   6    -0.396872880802E+02   -0.46049E-03   -0.93075E-04 21964   0.203E-01    0.198E-01
RMM:   7    -0.396875876300E+02   -0.29955E-03   -0.16416E-03 23895   0.259E-01
   4 F= -.39687588E+02 E0= -.39687588E+02  d E =-.961652E-01  mag=     0.0021
       N       E                     dE             d eps       ncg     rms          rms(c)
DAV:   1    -0.414290322487E+02   -0.17417E+01   -0.17900E+02 27648   0.765E+01    0.997E+00
RMM:   2    -0.402377612944E+02    0.11913E+01   -0.76360E+00 27648   0.169E+01    0.548E+00
RMM:   3    -0.399226885156E+02    0.31507E+00   -0.11239E+00 27648   0.559E+00    0.356E+00
RMM:   4    -0.397418724806E+02    0.18082E+00   -0.14048E-01 28240   0.214E+00    0.101E+00
RMM:   5    -0.397164681400E+02    0.25404E-01   -0.29958E-02 27870   0.980E-01    0.324E-01
RMM:   6    -0.397176549732E+02   -0.11868E-02   -0.22941E-03 27572   0.301E-01    0.109E-01
RMM:   7    -0.397178913954E+02   -0.23642E-03   -0.30263E-04 20189   0.103E-01
   5 F= -.39717891E+02 E0= -.39717891E+02  d E =-.126469E+00  mag=    -0.0000
       N       E                     dE             d eps       ncg     rms          rms(c)
DAV:   1    -0.402229710616E+02   -0.50532E+00   -0.42748E+01 28416   0.339E+01    0.503E+00
RMM:   2    -0.398900081546E+02    0.33296E+00   -0.17009E+00 27648   0.780E+00    0.271E+00
RMM:   3    -0.398332443607E+02    0.56764E-01   -0.31016E-01 27658   0.297E+00    0.202E+00
RMM:   4    -0.397771482366E+02    0.56096E-01   -0.37547E-02 28230   0.112E+00    0.599E-01
RMM:   5    -0.397703644422E+02    0.67838E-02   -0.93482E-03 27950   0.509E-01    0.170E-01
RMM:   6    -0.397707423359E+02   -0.37789E-03   -0.41798E-04 20289   0.155E-01
   6 F= -.39770742E+02 E0= -.39770742E+02  d E =-.179320E+00  mag=     0.0000
       N       E                     dE             d eps       ncg     rms          rms(c)
DAV:   1    -0.398807787572E+02   -0.11041E+00   -0.15148E+01 29184   0.178E+01    0.200E+00
RMM:   2    -0.398486573877E+02    0.32121E-01   -0.42262E-01 27648   0.308E+00    0.119E+00
RMM:   3    -0.398178432296E+02    0.30814E-01   -0.34436E-02 27648   0.103E+00    0.581E-01
RMM:   4    -0.398151157954E+02    0.27274E-02   -0.81504E-03 28247   0.528E-01    0.155E-01
RMM:   5    -0.398148356500E+02    0.28015E-03   -0.95191E-04 22474   0.206E-01    0.683E-02
RMM:   6    -0.398149474303E+02   -0.11178E-03   -0.11002E-04 20011   0.689E-02
   7 F= -.39814947E+02 E0= -.39814947E+02  d E =-.442051E-01  mag=     0.0000
       N       E                     dE             d eps       ncg     rms          rms(c)
DAV:   1    -0.398182134747E+02   -0.33778E-02   -0.44784E-01 38352   0.306E+00    0.339E-01
RMM:   2    -0.398173431287E+02    0.87035E-03   -0.12794E-02 27648   0.528E-01    0.201E-01
RMM:   3    -0.398164489449E+02    0.89418E-03   -0.95911E-04 22347   0.178E-01    0.925E-02
RMM:   4    -0.398163751938E+02    0.73751E-04   -0.26768E-04 17290   0.100E-01    0.352E-02
RMM:   5    -0.398163696716E+02    0.55222E-05   -0.61311E-05 14581   0.522E-02    0.140E-02
RMM:   6    -0.398163748207E+02   -0.51491E-05   -0.63530E-06 13578   0.181E-02
   8 F= -.39816375E+02 E0= -.39816375E+02  d E =-.456325E-01  mag=    -0.0000
       N       E                     dE             d eps       ncg     rms          rms(c)
DAV:   1    -0.398595818458E+02   -0.43212E-01   -0.42937E+00 28128   0.990E+00    0.116E+00
RMM:   2    -0.398473090990E+02    0.12273E-01   -0.87689E-02 27648   0.173E+00    0.584E-01
RMM:   3    -0.398457685345E+02    0.15406E-02   -0.10835E-02 27650   0.555E-01    0.467E-01
RMM:   4    -0.398430057583E+02    0.27628E-02   -0.20568E-03 26330   0.280E-01    0.149E-01
RMM:   5    -0.398426570685E+02    0.34869E-03   -0.34036E-04 20064   0.102E-01    0.355E-02
RMM:   6    -0.398426773151E+02   -0.20247E-04   -0.32497E-05 16973   0.374E-02
   9 F= -.39842677E+02 E0= -.39842677E+02  d E =-.263025E-01  mag=     0.0000
       N       E                     dE             d eps       ncg     rms          rms(c)
DAV:   1    -0.398771350996E+02   -0.34478E-01   -0.59582E+00 29376   0.117E+01    0.137E+00
RMM:   2    -0.398596191778E+02    0.17516E-01   -0.12262E-01 27648   0.204E+00    0.692E-01
RMM:   3    -0.398575119772E+02    0.21072E-02   -0.15207E-02 27652   0.658E-01    0.555E-01
RMM:   4    -0.398536001808E+02    0.39118E-02   -0.28861E-03 26658   0.332E-01    0.177E-01
RMM:   5    -0.398531116792E+02    0.48850E-03   -0.47991E-04 20387   0.121E-01    0.422E-02
RMM:   6    -0.398531392873E+02   -0.27608E-04   -0.43543E-05 18115   0.436E-02
  10 F= -.39853139E+02 E0= -.39853139E+02  d E =-.367645E-01  mag=     0.0000
