 vasp.5.4.1 24Jun15 (build Jan 18 2016 12:20:36) complex                        
  
 executed on           IFC91_ompi date 2018.02.24  17:42:22
 running on   24 total cores
 distrk:  each k-point on   24 cores,    1 groups
 distr:  one band on NCORES_PER_BAND=  24 cores,    1 groups


--------------------------------------------------------------------------------------------------------


 INCAR:
 POTCAR:    PAW_PBE Li_sv 10Sep2004               
 POTCAR:    PAW_PBE Ni_pv 06Sep2000               
 POTCAR:    PAW_PBE O 08Apr2002                   

 ----------------------------------------------------------------------------- 
|                                                                             |
|           W    W    AA    RRRRR   N    N  II  N    N   GGGG   !!!           |
|           W    W   A  A   R    R  NN   N  II  NN   N  G    G  !!!           |
|           W    W  A    A  R    R  N N  N  II  N N  N  G       !!!           |
|           W WW W  AAAAAA  RRRRR   N  N N  II  N  N N  G  GGG   !            |
|           WW  WW  A    A  R   R   N   NN  II  N   NN  G    G                |
|           W    W  A    A  R    R  N    N  II  N    N   GGGG   !!!           |
|                                                                             |
|      For optimal performance we recommend to set                            |
|        NCORE= 4 - approx SQRT( number of cores)                             |
|      NCORE specifies how many cores store one orbital (NPAR=cpu/NCORE).     |
|      This setting can  greatly improve the performance of VASP for DFT.     |
|      The default, NPAR=number of cores might be grossly inefficient         |
|      on modern multi-core architectures or massively parallel machines.     |
|      Do your own testing !!!!                                               |
|      Unfortunately you need to use the default for GW and RPA calculations. |
|      (for HF NCORE is supported but not extensively tested yet)             |
|                                                                             |
 ----------------------------------------------------------------------------- 

 POTCAR:    PAW_PBE Li_sv 10Sep2004               
   VRHFIN =Li: 1s2s2p                                                           
   LEXCH  = PE                                                                  
   EATOM  =   202.7858 eV,   14.9043 Ry                                         
                                                                                
   TITEL  = PAW_PBE Li_sv 10Sep2004                                             
   LULTRA =        F    use ultrasoft PP ?                                      
   IUNSCR =        0    unscreen: 0-lin 1-nonlin 2-no                           
   RPACOR =    0.000    partial core radius                                     
   POMASS =    7.010; ZVAL   =    3.000    mass and valenz                      
   RCORE  =    1.700    outmost cutoff radius                                   
   RWIGS  =    2.050; RWIGS  =    1.085    wigner-seitz radius (au A)           
   ENMAX  =  499.034; ENMIN  =  374.276 eV                                      
   ICORE  =        2    local potential                                         
   LCOR   =        T    correct aug charges                                     
   LPAW   =        T    paw PP                                                  
   EAUG   =  628.945                                                            
   RMAX   =    1.732    core radius for proj-oper                               
   RAUG   =    1.300    factor for augmentation sphere                          
   RDEP   =    1.728    radius for radial grids                                 
   RDEPT  =    1.329    core radius for aug-charge                              
                                                                                
   Atomic configuration                                                         
    4 entries                                                                   
     n  l   j            E        occ.                                          
     1  0  0.50       -51.8549   2.0000                                         
     2  0  0.50        -2.8742   1.0000                                         
     2  1  0.50        -1.3606   0.0000                                         
     3  2  1.50        -1.3606   0.0000                                         
   Description                                                                  
     l       E           TYP  RCUT    TYP  RCUT                                 
     0    -51.8548813     23  1.400                                             
     0     -2.8742052     23  1.700                                             
     1     -1.3605826     23  1.400                                             
     2     -1.3605826     23  1.400                                             
  local pseudopotential read in
  atomic valenz-charges read in
  non local Contribution for L=           0  read in
    real space projection operators read in
  non local Contribution for L=           0  read in
    real space projection operators read in
  non local Contribution for L=           1  read in
    real space projection operators read in
    PAW grid and wavefunctions read in
 
   number of l-projection  operators is LMAX  =           3
   number of lm-projection operators is LMMAX =           5
 
 POTCAR:    PAW_PBE Ni_pv 06Sep2000               
   VRHFIN =Ni:                                                                  
   LEXCH  = PE                                                                  
   EATOM  =  3501.1230 eV,  257.3253 Ry                                         
                                                                                
   TITEL  = PAW_PBE Ni_pv 06Sep2000                                             
   LULTRA =        F    use ultrasoft PP ?                                      
   IUNSCR =        1    unscreen: 0-lin 1-nonlin 2-no                           
   RPACOR =    1.500    partial core radius                                     
   POMASS =   58.690; ZVAL   =   16.000    mass and valenz                      
   RCORE  =    2.000    outmost cutoff radius                                   
   RWIGS  =    2.000; RWIGS  =    1.058    wigner-seitz radius (au A)           
   ENMAX  =  367.986; ENMIN  =  275.989 eV                                      
   RCLOC  =    1.301    cutoff for local pot                                    
   LCOR   =        T    correct aug charges                                     
   LPAW   =        T    paw PP                                                  
   EAUG   =  703.443                                                            
   DEXC   =    0.000                                                            
   RMAX   =    2.041    core radius for proj-oper                               
   RAUG   =    1.300    factor for augmentation sphere                          
   RDEP   =    2.103    radius for radial grids                                 
   RDEPT  =    1.618    core radius for aug-charge                              
                                                                                
   Atomic configuration                                                         
    8 entries                                                                   
     n  l   j            E        occ.                                          
     1  0  0.50     -8206.4253   2.0000                                         
     2  0  0.50      -976.1748   2.0000                                         
     2  1  1.50      -839.0571   6.0000                                         
     3  0  0.50      -105.9991   2.0000                                         
     3  1  1.50       -66.4603   6.0000                                         
     3  2  2.50        -4.6458   9.0000                                         
     4  0  0.50        -4.4926   1.0000                                         
     4  3  2.50        -1.3606   0.0000                                         
   Description                                                                  
     l       E           TYP  RCUT    TYP  RCUT                                 
     1    -66.4602962     23  1.700                                             
     1     -1.3605826     23  1.700                                             
     2     -4.6457867     23  2.000                                             
     2     -6.0063693     23  2.000                                             
     0     -4.4925576     23  1.900                                             
     0     16.3626226     23  1.900                                             
  local pseudopotential read in
  partial core-charges read in
  partial kinetic energy density read in
  atomic valenz-charges read in
  non local Contribution for L=           1  read in
    real space projection operators read in
  non local Contribution for L=           1  read in
    real space projection operators read in
  non local Contribution for L=           2  read in
    real space projection operators read in
  non local Contribution for L=           2  read in
    real space projection operators read in
  non local Contribution for L=           0  read in
    real space projection operators read in
  non local Contribution for L=           0  read in
    real space projection operators read in
    PAW grid and wavefunctions read in
 
   number of l-projection  operators is LMAX  =           6
   number of lm-projection operators is LMMAX =          18
 
 POTCAR:    PAW_PBE O 08Apr2002                   
   VRHFIN =O: s2p4                                                              
   LEXCH  = PE                                                                  
   EATOM  =   432.3788 eV,   31.7789 Ry                                         
                                                                                
   TITEL  = PAW_PBE O 08Apr2002                                                 
   LULTRA =        F    use ultrasoft PP ?                                      
   IUNSCR =        1    unscreen: 0-lin 1-nonlin 2-no                           
   RPACOR =    1.200    partial core radius                                     
   POMASS =   16.000; ZVAL   =    6.000    mass and valenz                      
   RCORE  =    1.520    outmost cutoff radius                                   
   RWIGS  =    1.550; RWIGS  =    0.820    wigner-seitz radius (au A)           
   ENMAX  =  400.000; ENMIN  =  300.000 eV                                      
   ICORE  =        2    local potential                                         
   LCOR   =        T    correct aug charges                                     
   LPAW   =        T    paw PP                                                  
   EAUG   =  605.392                                                            
   DEXC   =    0.000                                                            
   RMAX   =    1.553    core radius for proj-oper                               
   RAUG   =    1.300    factor for augmentation sphere                          
   RDEP   =    1.550    radius for radial grids                                 
   RDEPT  =    1.329    core radius for aug-charge                              
                                                                                
   Atomic configuration                                                         
    4 entries                                                                   
     n  l   j            E        occ.                                          
     1  0  0.50      -514.6923   2.0000                                         
     2  0  0.50       -23.9615   2.0000                                         
     2  1  0.50        -9.0305   4.0000                                         
     3  2  1.50        -9.5241   0.0000                                         
   Description                                                                  
     l       E           TYP  RCUT    TYP  RCUT                                 
     0    -23.9615318     23  1.200                                             
     0     -9.5240782     23  1.200                                             
     1     -9.0304911     23  1.520                                             
     1      8.1634956     23  1.520                                             
     2     -9.5240782      7  1.500                                             
  local pseudopotential read in
  partial core-charges read in
  partial kinetic energy density read in
  kinetic energy density of atom read in
  atomic valenz-charges read in
  non local Contribution for L=           0  read in
    real space projection operators read in
  non local Contribution for L=           0  read in
    real space projection operators read in
  non local Contribution for L=           1  read in
    real space projection operators read in
  non local Contribution for L=           1  read in
    real space projection operators read in
    PAW grid and wavefunctions read in
 
   number of l-projection  operators is LMAX  =           4
   number of lm-projection operators is LMMAX =           8
 

 ----------------------------------------------------------------------------- 
|                                                                             |
|  ADVICE TO THIS USER RUNNING 'VASP/VAMP'   (HEAR YOUR MASTER'S VOICE ...):  |
|                                                                             |
|      You have a (more or less) 'small supercell' and for smaller cells      |
|      it is recommended  to use the reciprocal-space projection scheme!      |
|      The real space optimization is not  efficient for small cells and it   |
|      is also less accurate ...                                              |
|      Therefore set LREAL=.FALSE. in the  INCAR file                         |
|                                                                             |
 ----------------------------------------------------------------------------- 

 Optimization of the real space projectors (new method)

 maximal supplied QI-value         = 22.11
 optimisation between [QCUT,QGAM] = [ 11.50, 23.22] = [ 37.02,150.92] Ry 
 Optimized for a Real-space Cutoff    1.08 Angstroem

   l    n(q)    QCUT    max X(q) W(low)/X(q) W(high)/X(q)  e(spline) 
   0      7    11.497    10.506    0.36E-04    0.62E-04    0.14E-07
   0      7    11.497     8.367    0.65E-04    0.14E-03    0.28E-07
   1      7    11.497     8.983    0.21E-03    0.43E-03    0.90E-07
 Optimization of the real space projectors (new method)

 maximal supplied QI-value         = 18.90
 optimisation between [QCUT,QGAM] = [ 11.53, 23.24] = [ 37.21,151.29] Ry 
 Optimized for a Real-space Cutoff    1.36 Angstroem

   l    n(q)    QCUT    max X(q) W(low)/X(q) W(high)/X(q)  e(spline) 
   1      9    11.527     2.836    0.16E-04    0.30E-04    0.95E-07
   1      9    11.527     4.023    0.73E-04    0.81E-04    0.21E-06
   2      9    11.527    73.368    0.15E-03    0.29E-03    0.28E-06
   2      9    11.527    69.010    0.15E-03    0.29E-03    0.29E-06
   0      9    11.527    54.797    0.43E-04    0.28E-04    0.85E-07
   0      9    11.527    24.266    0.33E-04    0.24E-04    0.75E-07
 Optimization of the real space projectors (new method)

 maximal supplied QI-value         = 24.76
 optimisation between [QCUT,QGAM] = [ 11.64, 23.27] = [ 37.91,151.63] Ry 
 Optimized for a Real-space Cutoff    1.14 Angstroem

   l    n(q)    QCUT    max X(q) W(low)/X(q) W(high)/X(q)  e(spline) 
   0      8    11.635    20.381    0.10E-03    0.33E-03    0.24E-06
   0      8    11.635    15.268    0.11E-03    0.35E-03    0.26E-06
   1      7    11.635     5.964    0.24E-03    0.31E-03    0.30E-06
   1      7    11.635     5.382    0.22E-03    0.25E-03    0.26E-06
  PAW_PBE Li_sv 10Sep2004               :
 energy of atom  1       EATOM= -202.7858
 kinetic energy error for atom=    0.0130 (will be added to EATOM!!)
  PAW_PBE Ni_pv 06Sep2000               :
 energy of atom  2       EATOM=-3501.1230
 kinetic energy error for atom=    0.0575 (will be added to EATOM!!)
  PAW_PBE O 08Apr2002                   :
 energy of atom  3       EATOM= -432.3788
 kinetic energy error for atom=    0.0208 (will be added to EATOM!!)
 
 
 POSCAR: Li2 Ni2 O4                              
  positions in direct lattice
  No initial velocities read in
 exchange correlation table for  LEXCH =        8
   RHO(1)=    0.500       N(1)  =     2000
   RHO(2)=  100.500       N(2)  =     4000
 


--------------------------------------------------------------------------------------------------------


 ion  position               nearest neighbor table
   1  0.000  0.000  0.000-   6 2.07   8 2.07   6 2.07   8 2.07   7 2.08   5 2.08
   2  0.500  0.500  0.000-   5 2.07   7 2.07   5 2.07   7 2.07   6 2.08   8 2.08
   3  0.000  0.500  0.500-   6 2.07   8 2.07   6 2.07   8 2.07   7 2.08   5 2.08
   4  0.500  0.000  0.500-   5 2.07   7 2.07   5 2.07   7 2.07   6 2.08   8 2.08
   5  0.000  0.750  0.750-   2 2.07   4 2.07   2 2.07   4 2.07   3 2.08   1 2.08
   6  0.500  0.750  0.250-   1 2.07   3 2.07   1 2.07   3 2.07   2 2.08   4 2.08
   7  0.000  0.250  0.250-   2 2.07   4 2.07   2 2.07   4 2.07   3 2.08   1 2.08
   8  0.500  0.250  0.750-   1 2.07   3 2.07   1 2.07   3 2.07   2 2.08   4 2.08
 

IMPORTANT INFORMATION: All symmetrisations will be switched off!
NOSYMM: (Re-)initialisation of all symmetry stuff for point group C_1.

 
 
 KPOINTS: pymatgen generated KPOINTS with grid den

Automatic generation of k-mesh.
Space group operators:
 irot       det(A)        alpha          n_x          n_y          n_z        tau_x        tau_y        tau_z
    1     1.000000     0.000001     1.000000     0.000000     0.000000     0.000000     0.000000     0.000000
 
 Subroutine IBZKPT returns following result:
 ===========================================
 
 Found    144 irreducible k-points:
 
 Following reciprocal coordinates:
            Coordinates               Weight
  0.062500  0.083333  0.083333      2.000000
  0.187500  0.083333  0.083333      2.000000
  0.312500  0.083333  0.083333      2.000000
  0.437500  0.083333  0.083333      2.000000
 -0.437500  0.083333  0.083333      2.000000
 -0.312500  0.083333  0.083333      2.000000
 -0.187500  0.083333  0.083333      2.000000
 -0.062500  0.083333  0.083333      2.000000
  0.062500  0.250000  0.083333      2.000000
  0.187500  0.250000  0.083333      2.000000
  0.312500  0.250000  0.083333      2.000000
  0.437500  0.250000  0.083333      2.000000
 -0.437500  0.250000  0.083333      2.000000
 -0.312500  0.250000  0.083333      2.000000
 -0.187500  0.250000  0.083333      2.000000
 -0.062500  0.250000  0.083333      2.000000
  0.062500  0.416667  0.083333      2.000000
  0.187500  0.416667  0.083333      2.000000
  0.312500  0.416667  0.083333      2.000000
  0.437500  0.416667  0.083333      2.000000
 -0.437500  0.416667  0.083333      2.000000
 -0.312500  0.416667  0.083333      2.000000
 -0.187500  0.416667  0.083333      2.000000
 -0.062500  0.416667  0.083333      2.000000
  0.062500 -0.416667  0.083333      2.000000
  0.187500 -0.416667  0.083333      2.000000
  0.312500 -0.416667  0.083333      2.000000
  0.437500 -0.416667  0.083333      2.000000
 -0.437500 -0.416667  0.083333      2.000000
 -0.312500 -0.416667  0.083333      2.000000
 -0.187500 -0.416667  0.083333      2.000000
 -0.062500 -0.416667  0.083333      2.000000
  0.062500 -0.250000  0.083333      2.000000
  0.187500 -0.250000  0.083333      2.000000
  0.312500 -0.250000  0.083333      2.000000
  0.437500 -0.250000  0.083333      2.000000
 -0.437500 -0.250000  0.083333      2.000000
 -0.312500 -0.250000  0.083333      2.000000
 -0.187500 -0.250000  0.083333      2.000000
 -0.062500 -0.250000  0.083333      2.000000
  0.062500 -0.083333  0.083333      2.000000
  0.187500 -0.083333  0.083333      2.000000
  0.312500 -0.083333  0.083333      2.000000
  0.437500 -0.083333  0.083333      2.000000
 -0.437500 -0.083333  0.083333      2.000000
 -0.312500 -0.083333  0.083333      2.000000
 -0.187500 -0.083333  0.083333      2.000000
 -0.062500 -0.083333  0.083333      2.000000
  0.062500  0.083333  0.250000      2.000000
  0.187500  0.083333  0.250000      2.000000
  0.312500  0.083333  0.250000      2.000000
  0.437500  0.083333  0.250000      2.000000
 -0.437500  0.083333  0.250000      2.000000
 -0.312500  0.083333  0.250000      2.000000
 -0.187500  0.083333  0.250000      2.000000
 -0.062500  0.083333  0.250000      2.000000
  0.062500  0.250000  0.250000      2.000000
  0.187500  0.250000  0.250000      2.000000
  0.312500  0.250000  0.250000      2.000000
  0.437500  0.250000  0.250000      2.000000
 -0.437500  0.250000  0.250000      2.000000
 -0.312500  0.250000  0.250000      2.000000
 -0.187500  0.250000  0.250000      2.000000
 -0.062500  0.250000  0.250000      2.000000
  0.062500  0.416667  0.250000      2.000000
  0.187500  0.416667  0.250000      2.000000
  0.312500  0.416667  0.250000      2.000000
  0.437500  0.416667  0.250000      2.000000
 -0.437500  0.416667  0.250000      2.000000
 -0.312500  0.416667  0.250000      2.000000
 -0.187500  0.416667  0.250000      2.000000
 -0.062500  0.416667  0.250000      2.000000
  0.062500 -0.416667  0.250000      2.000000
  0.187500 -0.416667  0.250000      2.000000
  0.312500 -0.416667  0.250000      2.000000
  0.437500 -0.416667  0.250000      2.000000
 -0.437500 -0.416667  0.250000      2.000000
 -0.312500 -0.416667  0.250000      2.000000
 -0.187500 -0.416667  0.250000      2.000000
 -0.062500 -0.416667  0.250000      2.000000
  0.062500 -0.250000  0.250000      2.000000
  0.187500 -0.250000  0.250000      2.000000
  0.312500 -0.250000  0.250000      2.000000
  0.437500 -0.250000  0.250000      2.000000
 -0.437500 -0.250000  0.250000      2.000000
 -0.312500 -0.250000  0.250000      2.000000
 -0.187500 -0.250000  0.250000      2.000000
 -0.062500 -0.250000  0.250000      2.000000
  0.062500 -0.083333  0.250000      2.000000
  0.187500 -0.083333  0.250000      2.000000
  0.312500 -0.083333  0.250000      2.000000
  0.437500 -0.083333  0.250000      2.000000
 -0.437500 -0.083333  0.250000      2.000000
 -0.312500 -0.083333  0.250000      2.000000
 -0.187500 -0.083333  0.250000      2.000000
 -0.062500 -0.083333  0.250000      2.000000
  0.062500  0.083333  0.416667      2.000000
  0.187500  0.083333  0.416667      2.000000
  0.312500  0.083333  0.416667      2.000000
  0.437500  0.083333  0.416667      2.000000
 -0.437500  0.083333  0.416667      2.000000
 -0.312500  0.083333  0.416667      2.000000
 -0.187500  0.083333  0.416667      2.000000
 -0.062500  0.083333  0.416667      2.000000
  0.062500  0.250000  0.416667      2.000000
  0.187500  0.250000  0.416667      2.000000
  0.312500  0.250000  0.416667      2.000000
  0.437500  0.250000  0.416667      2.000000
 -0.437500  0.250000  0.416667      2.000000
 -0.312500  0.250000  0.416667      2.000000
 -0.187500  0.250000  0.416667      2.000000
 -0.062500  0.250000  0.416667      2.000000
  0.062500  0.416667  0.416667      2.000000
  0.187500  0.416667  0.416667      2.000000
  0.312500  0.416667  0.416667      2.000000
  0.437500  0.416667  0.416667      2.000000
 -0.437500  0.416667  0.416667      2.000000
 -0.312500  0.416667  0.416667      2.000000
 -0.187500  0.416667  0.416667      2.000000
 -0.062500  0.416667  0.416667      2.000000
  0.062500 -0.416667  0.416667      2.000000
  0.187500 -0.416667  0.416667      2.000000
  0.312500 -0.416667  0.416667      2.000000
  0.437500 -0.416667  0.416667      2.000000
 -0.437500 -0.416667  0.416667      2.000000
 -0.312500 -0.416667  0.416667      2.000000
 -0.187500 -0.416667  0.416667      2.000000
 -0.062500 -0.416667  0.416667      2.000000
  0.062500 -0.250000  0.416667      2.000000
  0.187500 -0.250000  0.416667      2.000000
  0.312500 -0.250000  0.416667      2.000000
  0.437500 -0.250000  0.416667      2.000000
 -0.437500 -0.250000  0.416667      2.000000
 -0.312500 -0.250000  0.416667      2.000000
 -0.187500 -0.250000  0.416667      2.000000
 -0.062500 -0.250000  0.416667      2.000000
  0.062500 -0.083333  0.416667      2.000000
  0.187500 -0.083333  0.416667      2.000000
  0.312500 -0.083333  0.416667      2.000000
  0.437500 -0.083333  0.416667      2.000000
 -0.437500 -0.083333  0.416667      2.000000
 -0.312500 -0.083333  0.416667      2.000000
 -0.187500 -0.083333  0.416667      2.000000
 -0.062500 -0.083333  0.416667      2.000000
 
 Following cartesian coordinates:
            Coordinates               Weight
  0.021440  0.016281  0.011623      2.000000
  0.064319  0.016281  0.011623      2.000000
  0.107199  0.016281  0.011623      2.000000
  0.150078  0.016281  0.011623      2.000000
 -0.150078  0.016281  0.011623      2.000000
 -0.107199  0.016281  0.011623      2.000000
 -0.064319  0.016281  0.011623      2.000000
 -0.021440  0.016281  0.011623      2.000000
  0.021440  0.048843 -0.000020      2.000000
  0.064319  0.048843 -0.000020      2.000000
  0.107199  0.048843 -0.000020      2.000000
  0.150078  0.048843 -0.000020      2.000000
 -0.150078  0.048843 -0.000020      2.000000
 -0.107199  0.048843 -0.000020      2.000000
 -0.064319  0.048843 -0.000020      2.000000
 -0.021440  0.048843 -0.000020      2.000000
  0.021440  0.081404 -0.011664      2.000000
  0.064319  0.081404 -0.011664      2.000000
  0.107199  0.081404 -0.011664      2.000000
  0.150078  0.081404 -0.011664      2.000000
 -0.150078  0.081404 -0.011664      2.000000
 -0.107199  0.081404 -0.011664      2.000000
 -0.064319  0.081404 -0.011664      2.000000
 -0.021440  0.081404 -0.011664      2.000000
  0.021440 -0.081404  0.046555      2.000000
  0.064319 -0.081404  0.046555      2.000000
  0.107199 -0.081404  0.046555      2.000000
  0.150078 -0.081404  0.046555      2.000000
 -0.150078 -0.081404  0.046555      2.000000
 -0.107199 -0.081404  0.046555      2.000000
 -0.064319 -0.081404  0.046555      2.000000
 -0.021440 -0.081404  0.046555      2.000000
  0.021440 -0.048843  0.034911      2.000000
  0.064319 -0.048843  0.034911      2.000000
  0.107199 -0.048843  0.034911      2.000000
  0.150078 -0.048843  0.034911      2.000000
 -0.150078 -0.048843  0.034911      2.000000
 -0.107199 -0.048843  0.034911      2.000000
 -0.064319 -0.048843  0.034911      2.000000
 -0.021440 -0.048843  0.034911      2.000000
  0.021440 -0.016281  0.023267      2.000000
  0.064319 -0.016281  0.023267      2.000000
  0.107199 -0.016281  0.023267      2.000000
  0.150078 -0.016281  0.023267      2.000000
 -0.150078 -0.016281  0.023267      2.000000
 -0.107199 -0.016281  0.023267      2.000000
 -0.064319 -0.016281  0.023267      2.000000
 -0.021440 -0.016281  0.023267      2.000000
  0.021440  0.016281  0.046514      2.000000
  0.064319  0.016281  0.046514      2.000000
  0.107199  0.016281  0.046514      2.000000
  0.150078  0.016281  0.046514      2.000000
 -0.150078  0.016281  0.046514      2.000000
 -0.107199  0.016281  0.046514      2.000000
 -0.064319  0.016281  0.046514      2.000000
 -0.021440  0.016281  0.046514      2.000000
  0.021440  0.048843  0.034870      2.000000
  0.064319  0.048843  0.034870      2.000000
  0.107199  0.048843  0.034870      2.000000
  0.150078  0.048843  0.034870      2.000000
 -0.150078  0.048843  0.034870      2.000000
 -0.107199  0.048843  0.034870      2.000000
 -0.064319  0.048843  0.034870      2.000000
 -0.021440  0.048843  0.034870      2.000000
  0.021440  0.081404  0.023226      2.000000
  0.064319  0.081404  0.023226      2.000000
  0.107199  0.081404  0.023226      2.000000
  0.150078  0.081404  0.023226      2.000000
 -0.150078  0.081404  0.023226      2.000000
 -0.107199  0.081404  0.023226      2.000000
 -0.064319  0.081404  0.023226      2.000000
 -0.021440  0.081404  0.023226      2.000000
  0.021440 -0.081404  0.081446      2.000000
  0.064319 -0.081404  0.081446      2.000000
  0.107199 -0.081404  0.081446      2.000000
  0.150078 -0.081404  0.081446      2.000000
 -0.150078 -0.081404  0.081446      2.000000
 -0.107199 -0.081404  0.081446      2.000000
 -0.064319 -0.081404  0.081446      2.000000
 -0.021440 -0.081404  0.081446      2.000000
  0.021440 -0.048843  0.069802      2.000000
  0.064319 -0.048843  0.069802      2.000000
  0.107199 -0.048843  0.069802      2.000000
  0.150078 -0.048843  0.069802      2.000000
 -0.150078 -0.048843  0.069802      2.000000
 -0.107199 -0.048843  0.069802      2.000000
 -0.064319 -0.048843  0.069802      2.000000
 -0.021440 -0.048843  0.069802      2.000000
  0.021440 -0.016281  0.058158      2.000000
  0.064319 -0.016281  0.058158      2.000000
  0.107199 -0.016281  0.058158      2.000000
  0.150078 -0.016281  0.058158      2.000000
 -0.150078 -0.016281  0.058158      2.000000
 -0.107199 -0.016281  0.058158      2.000000
 -0.064319 -0.016281  0.058158      2.000000
 -0.021440 -0.016281  0.058158      2.000000
  0.021440  0.016281  0.081405      2.000000
  0.064319  0.016281  0.081405      2.000000
  0.107199  0.016281  0.081405      2.000000
  0.150078  0.016281  0.081405      2.000000
 -0.150078  0.016281  0.081405      2.000000
 -0.107199  0.016281  0.081405      2.000000
 -0.064319  0.016281  0.081405      2.000000
 -0.021440  0.016281  0.081405      2.000000
  0.021440  0.048843  0.069761      2.000000
  0.064319  0.048843  0.069761      2.000000
  0.107199  0.048843  0.069761      2.000000
  0.150078  0.048843  0.069761      2.000000
 -0.150078  0.048843  0.069761      2.000000
 -0.107199  0.048843  0.069761      2.000000
 -0.064319  0.048843  0.069761      2.000000
 -0.021440  0.048843  0.069761      2.000000
  0.021440  0.081404  0.058117      2.000000
  0.064319  0.081404  0.058117      2.000000
  0.107199  0.081404  0.058117      2.000000
  0.150078  0.081404  0.058117      2.000000
 -0.150078  0.081404  0.058117      2.000000
 -0.107199  0.081404  0.058117      2.000000
 -0.064319  0.081404  0.058117      2.000000
 -0.021440  0.081404  0.058117      2.000000
  0.021440 -0.081404  0.116336      2.000000
  0.064319 -0.081404  0.116336      2.000000
  0.107199 -0.081404  0.116336      2.000000
  0.150078 -0.081404  0.116336      2.000000
 -0.150078 -0.081404  0.116336      2.000000
 -0.107199 -0.081404  0.116336      2.000000
 -0.064319 -0.081404  0.116336      2.000000
 -0.021440 -0.081404  0.116336      2.000000
  0.021440 -0.048843  0.104692      2.000000
  0.064319 -0.048843  0.104692      2.000000
  0.107199 -0.048843  0.104692      2.000000
  0.150078 -0.048843  0.104692      2.000000
 -0.150078 -0.048843  0.104692      2.000000
 -0.107199 -0.048843  0.104692      2.000000
 -0.064319 -0.048843  0.104692      2.000000
 -0.021440 -0.048843  0.104692      2.000000
  0.021440 -0.016281  0.093049      2.000000
  0.064319 -0.016281  0.093049      2.000000
  0.107199 -0.016281  0.093049      2.000000
  0.150078 -0.016281  0.093049      2.000000
 -0.150078 -0.016281  0.093049      2.000000
 -0.107199 -0.016281  0.093049      2.000000
 -0.064319 -0.016281  0.093049      2.000000
 -0.021440 -0.016281  0.093049      2.000000
 
 TETIRR: Found    864 inequivalent tetrahedra from     1728


--------------------------------------------------------------------------------------------------------




 Dimension of arrays:
   k-points           NKPTS =    144   k-points in BZ     NKDIM =    144   number of bands    NBANDS=     37
   number of dos      NEDOS =    301   number of ions     NIONS =      8
   non local maximal  LDIM  =      6   non local SUM 2l+1 LMDIM =     18
   total plane-waves  NPLWV =  38400
   max r-space proj   IRMAX =   5761   max aug-charges    IRDMAX=  12093
   dimension x,y,z NGX =    24 NGY =   40 NGZ =   40
   dimension x,y,z NGXF=    48 NGYF=   80 NGZF=   80
   support grid    NGXF=    48 NGYF=   80 NGZF=   80
   ions per type =               2   2   4
 NGX,Y,Z   is equivalent  to a cutoff of  13.69, 12.99, 13.11 a.u.
 NGXF,Y,Z  is equivalent  to a cutoff of  27.37, 25.98, 26.22 a.u.


 I would recommend the setting:
   dimension x,y,z NGX =    22 NGY =   38 NGZ =   38
 SYSTEM =  unknown system                          
 POSCAR =  Li2 Ni2 O4                              

 Startparameter for this run:
   NWRITE =      2    write-flag & timer
   PREC   = accura    normal or accurate (medium, high low for compatibility)
   ISTART =      0    job   : 0-new  1-cont  2-samecut
   ICHARG =      1    charge: 1-file 2-atom 10-const
   ISPIN  =      2    spin polarized calculation?
   LNONCOLLINEAR =      F non collinear calculations
   LSORBIT =      F    spin-orbit coupling
   INIWAV =      1    electr: 0-lowe 1-rand  2-diag
   LASPH  =      F    aspherical Exc in radial PAW
   METAGGA=      F    non-selfconsistent MetaGGA calc.

 Electronic Relaxation 1
   ENCUT  =  520.0 eV  38.22 Ry    6.18 a.u.   5.42  9.52  9.43*2*pi/ulx,y,z
   ENINI  =  520.0     initial cutoff
   ENAUG  =  703.4 eV  augmentation charge cutoff
   NELM   =    100;   NELMIN=  6; NELMDL=  0     # of ELM steps 
   EDIFF  = 0.4E-03   stopping-criterion for ELM
   LREAL  =      T    real-space projection
   NLSPLINE    = F    spline interpolate recip. space projectors
   LCOMPAT=      F    compatible to vasp.4.4
   GGA_COMPAT  = T    GGA compatible to vasp.4.4-vasp.4.6
   LMAXPAW     = -100 max onsite density
   LMAXMIX     =    4 max onsite mixed and CHGCAR
   VOSKOWN=      0    Vosko Wilk Nusair interpolation
   ROPT   =   -0.00025  -0.00025  -0.00025
 Ionic relaxation
   EDIFFG = 0.4E-02   stopping-criterion for IOM
   NSW    =    199    number of steps for IOM
   NBLOCK =      1;   KBLOCK =    199    inner block; outer block 
   IBRION =      2    ionic relax: 0-MD 1-quasi-New 2-CG
   NFREE  =      1    steps in history (QN), initial steepest desc. (CG)
   ISIF   =      3    stress and relaxation
   IWAVPR =     11    prediction:  0-non 1-charg 2-wave 3-comb
   ISYM   =      0    0-nonsym 1-usesym 2-fastsym
   LCORR  =      T    Harris-Foulkes like correction to forces

   POTIM  = 0.5000    time-step for ionic-motion
   TEIN   =    0.0    initial temperature
   TEBEG  =    0.0;   TEEND  =   0.0 temperature during run
   SMASS  =  -3.00    Nose mass-parameter (am)
   estimated Nose-frequenzy (Omega)   =  0.10E-29 period in steps =****** mass=  -0.194E-27a.u.
   SCALEE = 1.0000    scale energy and forces
   NPACO  =    256;   APACO  = 16.0  distance and # of slots for P.C.
   PSTRESS=    0.0 pullay stress

  Mass of Ions in am
   POMASS =   7.01 58.69 16.00
  Ionic Valenz
   ZVAL   =   3.00 16.00  6.00
  Atomic Wigner-Seitz radii
   RWIGS  =  -1.00 -1.00 -1.00
  virtual crystal weights 
   VCA    =   1.00  1.00  1.00
   NELECT =      62.0000    total number of electrons
   NUPDOWN=      -1.0000    fix difference up-down

 DOS related values:
   EMIN   =  10.00;   EMAX   =-10.00  energy-range for DOS
   EFERMI =   0.00
   ISMEAR =    -5;   SIGMA  =   0.05  broadening in eV -4-tet -1-fermi 0-gaus

 Electronic relaxation 2 (details)
   IALGO  =     68    algorithm
   LDIAG  =      T    sub-space diagonalisation (order eigenvalues)
   LSUBROT=      F    optimize rotation matrix (better conditioning)
   TURBO    =      0    0=normal 1=particle mesh
   IRESTART =      0    0=no restart 2=restart with 2 vectors
   NREBOOT  =      0    no. of reboots
   NMIN     =      0    reboot dimension
   EREF     =   0.00    reference energy to select bands
   IMIX   =      4    mixing-type and parameters
     AMIX     =   0.40;   BMIX     =  1.00
     AMIX_MAG =   1.60;   BMIX_MAG =  1.00
     AMIN     =   0.10
     WC   =   100.;   INIMIX=   1;  MIXPRE=   1;  MAXMIX= -45

 Intra band minimization:
   WEIMIN = 0.0010     energy-eigenvalue tresh-hold
   EBREAK =  0.27E-05  absolut break condition
   DEPER  =   0.30     relativ break condition  

   TIME   =   0.40     timestep for ELM

  volume/ion in A,a.u.               =       8.91        60.12
  Fermi-wavevector in a.u.,A,eV,Ry     =   1.562756  2.953181 33.228240  2.442207
  Thomas-Fermi vector in A             =   2.665628
 
 Write flags
   LWAVE  =      F    write WAVECAR
   LCHARG =      T    write CHGCAR
   LVTOT  =      F    write LOCPOT, total local potential
   LVHAR  =      F    write LOCPOT, Hartree potential only
   LELF   =      F    write electronic localiz. function (ELF)
   LORBIT =     11    0 simple, 1 ext, 2 COOP (PROOUT)


 Dipole corrections
   LMONO  =      F    monopole corrections only (constant potential shift)
   LDIPOL =      F    correct potential (dipole corrections)
   IDIPOL =      0    1-x, 2-y, 3-z, 4-all directions 
   EPSILON=  1.0000000 bulk dielectric constant

 LDA+U is selected, type is set to LDAUTYPE =  2
   angular momentum for each species LDAUL =     0    2    0
   U (eV)           for each species LDAUU =   0.0  6.2  0.0
   J (eV)           for each species LDAUJ =   0.0  0.0  0.0
 Exchange correlation treatment:
   GGA     =    --    GGA type
   LEXCH   =     8    internal setting for exchange type
   VOSKOWN=      0    Vosko Wilk Nusair interpolation
   LHFCALC =     F    Hartree Fock is set to
   LHFONE  =     F    Hartree Fock one center treatment
   AEXX    =    0.0000 exact exchange contribution

 Linear response parameters
   LEPSILON=     F    determine dielectric tensor
   LRPA    =     F    only Hartree local field effects (RPA)
   LNABLA  =     F    use nabla operator in PAW spheres
   LVEL    =     F    velocity operator in full k-point grid
   LINTERFAST=   F  fast interpolation
   KINTER  =     0    interpolate to denser k-point grid
   CSHIFT  =0.1000    complex shift for real part using Kramers Kronig
   OMEGAMAX=  -1.0    maximum frequency
   DEG_THRESHOLD= 0.2000000E-02 threshold for treating states as degnerate
   RTIME   =    0.100 relaxation time in fs

 Orbital magnetization related:
   ORBITALMAG=     F  switch on orbital magnetization
   LCHIMAG   =     F  perturbation theory with respect to B field
   DQ        =  0.001000  dq finite difference perturbation B field



--------------------------------------------------------------------------------------------------------


 conjugate gradient relaxation of ions
 charge density and potential will be updated during run
 spin polarized calculation
 RMM-DIIS sequential band-by-band and
  variant of blocked Davidson during initial phase
 perform sub-space diagonalisation
    before iterative eigenvector-optimisation
 modified Broyden-mixing scheme, WC =      100.0
 initial mixing is a Kerker type mixing with AMIX =  0.4000 and BMIX =      1.0000
 Hartree-type preconditioning will be used
 using additional bands            6
 real space projection scheme for non local part
 use partial core corrections
 calculate Harris-corrections to forces 
   (improved forces if not selfconsistent)
 use gradient corrections 
 use of overlap-Matrix (Vanderbilt PP)
 Fermi weights with tetrahedron method with Bloechl corrections


--------------------------------------------------------------------------------------------------------


  energy-cutoff  :      520.00
  volume of cell :       71.28
      direct lattice vectors                 reciprocal lattice vectors
     2.915150000  0.000000000  0.000000000     0.343035521  0.000000000  0.000000000
     0.000000000  5.118490000  0.000000000     0.000000000  0.195370119 -0.069863274
     0.000000000  1.708168000  4.776830000     0.000000000  0.000000000  0.209343854

  length of vectors
     2.915150000  5.118490000  5.073060493     0.343035521  0.207485808  0.209343854


 
 k-points in units of 2pi/SCALE and weight: pymatgen generated KPOINTS with grid den
   0.02143972  0.01628084  0.01162338       0.007
   0.06431916  0.01628084  0.01162338       0.007
   0.10719860  0.01628084  0.01162338       0.007
   0.15007804  0.01628084  0.01162338       0.007
  -0.15007804  0.01628084  0.01162338       0.007
  -0.10719860  0.01628084  0.01162338       0.007
  -0.06431916  0.01628084  0.01162338       0.007
  -0.02143972  0.01628084  0.01162338       0.007
   0.02143972  0.04884253 -0.00002050       0.007
   0.06431916  0.04884253 -0.00002050       0.007
   0.10719860  0.04884253 -0.00002050       0.007
   0.15007804  0.04884253 -0.00002050       0.007
  -0.15007804  0.04884253 -0.00002050       0.007
  -0.10719860  0.04884253 -0.00002050       0.007
  -0.06431916  0.04884253 -0.00002050       0.007
  -0.02143972  0.04884253 -0.00002050       0.007
   0.02143972  0.08140422 -0.01166438       0.007
   0.06431916  0.08140422 -0.01166438       0.007
   0.10719860  0.08140422 -0.01166438       0.007
   0.15007804  0.08140422 -0.01166438       0.007
  -0.15007804  0.08140422 -0.01166438       0.007
  -0.10719860  0.08140422 -0.01166438       0.007
  -0.06431916  0.08140422 -0.01166438       0.007
  -0.02143972  0.08140422 -0.01166438       0.007
   0.02143972 -0.08140422  0.04655502       0.007
   0.06431916 -0.08140422  0.04655502       0.007
   0.10719860 -0.08140422  0.04655502       0.007
   0.15007804 -0.08140422  0.04655502       0.007
  -0.15007804 -0.08140422  0.04655502       0.007
  -0.10719860 -0.08140422  0.04655502       0.007
  -0.06431916 -0.08140422  0.04655502       0.007
  -0.02143972 -0.08140422  0.04655502       0.007
   0.02143972 -0.04884253  0.03491114       0.007
   0.06431916 -0.04884253  0.03491114       0.007
   0.10719860 -0.04884253  0.03491114       0.007
   0.15007804 -0.04884253  0.03491114       0.007
  -0.15007804 -0.04884253  0.03491114       0.007
  -0.10719860 -0.04884253  0.03491114       0.007
  -0.06431916 -0.04884253  0.03491114       0.007
  -0.02143972 -0.04884253  0.03491114       0.007
   0.02143972 -0.01628084  0.02326726       0.007
   0.06431916 -0.01628084  0.02326726       0.007
   0.10719860 -0.01628084  0.02326726       0.007
   0.15007804 -0.01628084  0.02326726       0.007
  -0.15007804 -0.01628084  0.02326726       0.007
  -0.10719860 -0.01628084  0.02326726       0.007
  -0.06431916 -0.01628084  0.02326726       0.007
  -0.02143972 -0.01628084  0.02326726       0.007
   0.02143972  0.01628084  0.04651402       0.007
   0.06431916  0.01628084  0.04651402       0.007
   0.10719860  0.01628084  0.04651402       0.007
   0.15007804  0.01628084  0.04651402       0.007
  -0.15007804  0.01628084  0.04651402       0.007
  -0.10719860  0.01628084  0.04651402       0.007
  -0.06431916  0.01628084  0.04651402       0.007
  -0.02143972  0.01628084  0.04651402       0.007
   0.02143972  0.04884253  0.03487014       0.007
   0.06431916  0.04884253  0.03487014       0.007
   0.10719860  0.04884253  0.03487014       0.007
   0.15007804  0.04884253  0.03487014       0.007
  -0.15007804  0.04884253  0.03487014       0.007
  -0.10719860  0.04884253  0.03487014       0.007
  -0.06431916  0.04884253  0.03487014       0.007
  -0.02143972  0.04884253  0.03487014       0.007
   0.02143972  0.08140422  0.02322627       0.007
   0.06431916  0.08140422  0.02322627       0.007
   0.10719860  0.08140422  0.02322627       0.007
   0.15007804  0.08140422  0.02322627       0.007
  -0.15007804  0.08140422  0.02322627       0.007
  -0.10719860  0.08140422  0.02322627       0.007
  -0.06431916  0.08140422  0.02322627       0.007
  -0.02143972  0.08140422  0.02322627       0.007
   0.02143972 -0.08140422  0.08144566       0.007
   0.06431916 -0.08140422  0.08144566       0.007
   0.10719860 -0.08140422  0.08144566       0.007
   0.15007804 -0.08140422  0.08144566       0.007
  -0.15007804 -0.08140422  0.08144566       0.007
  -0.10719860 -0.08140422  0.08144566       0.007
  -0.06431916 -0.08140422  0.08144566       0.007
  -0.02143972 -0.08140422  0.08144566       0.007
   0.02143972 -0.04884253  0.06980178       0.007
   0.06431916 -0.04884253  0.06980178       0.007
   0.10719860 -0.04884253  0.06980178       0.007
   0.15007804 -0.04884253  0.06980178       0.007
  -0.15007804 -0.04884253  0.06980178       0.007
  -0.10719860 -0.04884253  0.06980178       0.007
  -0.06431916 -0.04884253  0.06980178       0.007
  -0.02143972 -0.04884253  0.06980178       0.007
   0.02143972 -0.01628084  0.05815790       0.007
   0.06431916 -0.01628084  0.05815790       0.007
   0.10719860 -0.01628084  0.05815790       0.007
   0.15007804 -0.01628084  0.05815790       0.007
  -0.15007804 -0.01628084  0.05815790       0.007
  -0.10719860 -0.01628084  0.05815790       0.007
  -0.06431916 -0.01628084  0.05815790       0.007
  -0.02143972 -0.01628084  0.05815790       0.007
   0.02143972  0.01628084  0.08140467       0.007
   0.06431916  0.01628084  0.08140467       0.007
   0.10719860  0.01628084  0.08140467       0.007
   0.15007804  0.01628084  0.08140467       0.007
  -0.15007804  0.01628084  0.08140467       0.007
  -0.10719860  0.01628084  0.08140467       0.007
  -0.06431916  0.01628084  0.08140467       0.007
  -0.02143972  0.01628084  0.08140467       0.007
   0.02143972  0.04884253  0.06976079       0.007
   0.06431916  0.04884253  0.06976079       0.007
   0.10719860  0.04884253  0.06976079       0.007
   0.15007804  0.04884253  0.06976079       0.007
  -0.15007804  0.04884253  0.06976079       0.007
  -0.10719860  0.04884253  0.06976079       0.007
  -0.06431916  0.04884253  0.06976079       0.007
  -0.02143972  0.04884253  0.06976079       0.007
   0.02143972  0.08140422  0.05811691       0.007
   0.06431916  0.08140422  0.05811691       0.007
   0.10719860  0.08140422  0.05811691       0.007
   0.15007804  0.08140422  0.05811691       0.007
  -0.15007804  0.08140422  0.05811691       0.007
  -0.10719860  0.08140422  0.05811691       0.007
  -0.06431916  0.08140422  0.05811691       0.007
  -0.02143972  0.08140422  0.05811691       0.007
   0.02143972 -0.08140422  0.11633630       0.007
   0.06431916 -0.08140422  0.11633630       0.007
   0.10719860 -0.08140422  0.11633630       0.007
   0.15007804 -0.08140422  0.11633630       0.007
  -0.15007804 -0.08140422  0.11633630       0.007
  -0.10719860 -0.08140422  0.11633630       0.007
  -0.06431916 -0.08140422  0.11633630       0.007
  -0.02143972 -0.08140422  0.11633630       0.007
   0.02143972 -0.04884253  0.10469242       0.007
   0.06431916 -0.04884253  0.10469242       0.007
   0.10719860 -0.04884253  0.10469242       0.007
   0.15007804 -0.04884253  0.10469242       0.007
  -0.15007804 -0.04884253  0.10469242       0.007
  -0.10719860 -0.04884253  0.10469242       0.007
  -0.06431916 -0.04884253  0.10469242       0.007
  -0.02143972 -0.04884253  0.10469242       0.007
   0.02143972 -0.01628084  0.09304855       0.007
   0.06431916 -0.01628084  0.09304855       0.007
   0.10719860 -0.01628084  0.09304855       0.007
   0.15007804 -0.01628084  0.09304855       0.007
  -0.15007804 -0.01628084  0.09304855       0.007
  -0.10719860 -0.01628084  0.09304855       0.007
  -0.06431916 -0.01628084  0.09304855       0.007
  -0.02143972 -0.01628084  0.09304855       0.007
 
 k-points in reciprocal lattice and weights: pymatgen generated KPOINTS with grid den
   0.06250000  0.08333333  0.08333333       0.007
   0.18750000  0.08333333  0.08333333       0.007
   0.31250000  0.08333333  0.08333333       0.007
   0.43750000  0.08333333  0.08333333       0.007
  -0.43750000  0.08333333  0.08333333       0.007
  -0.31250000  0.08333333  0.08333333       0.007
  -0.18750000  0.08333333  0.08333333       0.007
  -0.06250000  0.08333333  0.08333333       0.007
   0.06250000  0.25000000  0.08333333       0.007
   0.18750000  0.25000000  0.08333333       0.007
   0.31250000  0.25000000  0.08333333       0.007
   0.43750000  0.25000000  0.08333333       0.007
  -0.43750000  0.25000000  0.08333333       0.007
  -0.31250000  0.25000000  0.08333333       0.007
  -0.18750000  0.25000000  0.08333333       0.007
  -0.06250000  0.25000000  0.08333333       0.007
   0.06250000  0.41666667  0.08333333       0.007
   0.18750000  0.41666667  0.08333333       0.007
   0.31250000  0.41666667  0.08333333       0.007
   0.43750000  0.41666667  0.08333333       0.007
  -0.43750000  0.41666667  0.08333333       0.007
  -0.31250000  0.41666667  0.08333333       0.007
  -0.18750000  0.41666667  0.08333333       0.007
  -0.06250000  0.41666667  0.08333333       0.007
   0.06250000 -0.41666667  0.08333333       0.007
   0.18750000 -0.41666667  0.08333333       0.007
   0.31250000 -0.41666667  0.08333333       0.007
   0.43750000 -0.41666667  0.08333333       0.007
  -0.43750000 -0.41666667  0.08333333       0.007
  -0.31250000 -0.41666667  0.08333333       0.007
  -0.18750000 -0.41666667  0.08333333       0.007
  -0.06250000 -0.41666667  0.08333333       0.007
   0.06250000 -0.25000000  0.08333333       0.007
   0.18750000 -0.25000000  0.08333333       0.007
   0.31250000 -0.25000000  0.08333333       0.007
   0.43750000 -0.25000000  0.08333333       0.007
  -0.43750000 -0.25000000  0.08333333       0.007
  -0.31250000 -0.25000000  0.08333333       0.007
  -0.18750000 -0.25000000  0.08333333       0.007
  -0.06250000 -0.25000000  0.08333333       0.007
   0.06250000 -0.08333333  0.08333333       0.007
   0.18750000 -0.08333333  0.08333333       0.007
   0.31250000 -0.08333333  0.08333333       0.007
   0.43750000 -0.08333333  0.08333333       0.007
  -0.43750000 -0.08333333  0.08333333       0.007
  -0.31250000 -0.08333333  0.08333333       0.007
  -0.18750000 -0.08333333  0.08333333       0.007
  -0.06250000 -0.08333333  0.08333333       0.007
   0.06250000  0.08333333  0.25000000       0.007
   0.18750000  0.08333333  0.25000000       0.007
   0.31250000  0.08333333  0.25000000       0.007
   0.43750000  0.08333333  0.25000000       0.007
  -0.43750000  0.08333333  0.25000000       0.007
  -0.31250000  0.08333333  0.25000000       0.007
  -0.18750000  0.08333333  0.25000000       0.007
  -0.06250000  0.08333333  0.25000000       0.007
   0.06250000  0.25000000  0.25000000       0.007
   0.18750000  0.25000000  0.25000000       0.007
   0.31250000  0.25000000  0.25000000       0.007
   0.43750000  0.25000000  0.25000000       0.007
  -0.43750000  0.25000000  0.25000000       0.007
  -0.31250000  0.25000000  0.25000000       0.007
  -0.18750000  0.25000000  0.25000000       0.007
  -0.06250000  0.25000000  0.25000000       0.007
   0.06250000  0.41666667  0.25000000       0.007
   0.18750000  0.41666667  0.25000000       0.007
   0.31250000  0.41666667  0.25000000       0.007
   0.43750000  0.41666667  0.25000000       0.007
  -0.43750000  0.41666667  0.25000000       0.007
  -0.31250000  0.41666667  0.25000000       0.007
  -0.18750000  0.41666667  0.25000000       0.007
  -0.06250000  0.41666667  0.25000000       0.007
   0.06250000 -0.41666667  0.25000000       0.007
   0.18750000 -0.41666667  0.25000000       0.007
   0.31250000 -0.41666667  0.25000000       0.007
   0.43750000 -0.41666667  0.25000000       0.007
  -0.43750000 -0.41666667  0.25000000       0.007
  -0.31250000 -0.41666667  0.25000000       0.007
  -0.18750000 -0.41666667  0.25000000       0.007
  -0.06250000 -0.41666667  0.25000000       0.007
   0.06250000 -0.25000000  0.25000000       0.007
   0.18750000 -0.25000000  0.25000000       0.007
   0.31250000 -0.25000000  0.25000000       0.007
   0.43750000 -0.25000000  0.25000000       0.007
  -0.43750000 -0.25000000  0.25000000       0.007
  -0.31250000 -0.25000000  0.25000000       0.007
  -0.18750000 -0.25000000  0.25000000       0.007
  -0.06250000 -0.25000000  0.25000000       0.007
   0.06250000 -0.08333333  0.25000000       0.007
   0.18750000 -0.08333333  0.25000000       0.007
   0.31250000 -0.08333333  0.25000000       0.007
   0.43750000 -0.08333333  0.25000000       0.007
  -0.43750000 -0.08333333  0.25000000       0.007
  -0.31250000 -0.08333333  0.25000000       0.007
  -0.18750000 -0.08333333  0.25000000       0.007
  -0.06250000 -0.08333333  0.25000000       0.007
   0.06250000  0.08333333  0.41666667       0.007
   0.18750000  0.08333333  0.41666667       0.007
   0.31250000  0.08333333  0.41666667       0.007
   0.43750000  0.08333333  0.41666667       0.007
  -0.43750000  0.08333333  0.41666667       0.007
  -0.31250000  0.08333333  0.41666667       0.007
  -0.18750000  0.08333333  0.41666667       0.007
  -0.06250000  0.08333333  0.41666667       0.007
   0.06250000  0.25000000  0.41666667       0.007
   0.18750000  0.25000000  0.41666667       0.007
   0.31250000  0.25000000  0.41666667       0.007
   0.43750000  0.25000000  0.41666667       0.007
  -0.43750000  0.25000000  0.41666667       0.007
  -0.31250000  0.25000000  0.41666667       0.007
  -0.18750000  0.25000000  0.41666667       0.007
  -0.06250000  0.25000000  0.41666667       0.007
   0.06250000  0.41666667  0.41666667       0.007
   0.18750000  0.41666667  0.41666667       0.007
   0.31250000  0.41666667  0.41666667       0.007
   0.43750000  0.41666667  0.41666667       0.007
  -0.43750000  0.41666667  0.41666667       0.007
  -0.31250000  0.41666667  0.41666667       0.007
  -0.18750000  0.41666667  0.41666667       0.007
  -0.06250000  0.41666667  0.41666667       0.007
   0.06250000 -0.41666667  0.41666667       0.007
   0.18750000 -0.41666667  0.41666667       0.007
   0.31250000 -0.41666667  0.41666667       0.007
   0.43750000 -0.41666667  0.41666667       0.007
  -0.43750000 -0.41666667  0.41666667       0.007
  -0.31250000 -0.41666667  0.41666667       0.007
  -0.18750000 -0.41666667  0.41666667       0.007
  -0.06250000 -0.41666667  0.41666667       0.007
   0.06250000 -0.25000000  0.41666667       0.007
   0.18750000 -0.25000000  0.41666667       0.007
   0.31250000 -0.25000000  0.41666667       0.007
   0.43750000 -0.25000000  0.41666667       0.007
  -0.43750000 -0.25000000  0.41666667       0.007
  -0.31250000 -0.25000000  0.41666667       0.007
  -0.18750000 -0.25000000  0.41666667       0.007
  -0.06250000 -0.25000000  0.41666667       0.007
   0.06250000 -0.08333333  0.41666667       0.007
   0.18750000 -0.08333333  0.41666667       0.007
   0.31250000 -0.08333333  0.41666667       0.007
   0.43750000 -0.08333333  0.41666667       0.007
  -0.43750000 -0.08333333  0.41666667       0.007
  -0.31250000 -0.08333333  0.41666667       0.007
  -0.18750000 -0.08333333  0.41666667       0.007
  -0.06250000 -0.08333333  0.41666667       0.007
 
 position of ions in fractional coordinates (direct lattice) 
   0.00000000  0.00000000  0.00000000
   0.50000000  0.50000000  0.00000000
   0.00000000  0.50000000  0.50000000
   0.50000000  0.00000000  0.50000000
   0.00000000  0.75000000  0.75000000
   0.50000000  0.75000000  0.25000000
   0.00000000  0.25000000  0.25000000
   0.50000000  0.25000000  0.75000000
 
 position of ions in cartesian coordinates  (Angst):
   0.00000000  0.00000000  0.00000000
   1.45757500  2.55924500  0.00000000
   0.00000000  3.41332900  2.38841500
   1.45757500  0.85408400  2.38841500
   0.00000000  5.11999350  3.58262250
   1.45757500  4.26590950  1.19420750
   0.00000000  1.70666450  1.19420750
   1.45757500  2.56074850  3.58262250
 


--------------------------------------------------------------------------------------------------------


 k-point  1 :   0.0625 0.0833 0.0833  plane waves:    1920
 k-point  2 :   0.1875 0.0833 0.0833  plane waves:    1924
 k-point  3 :   0.3125 0.0833 0.0833  plane waves:    1920
 k-point  4 :   0.4375 0.0833 0.0833  plane waves:    1926
 k-point  5 :  -0.4375 0.0833 0.0833  plane waves:    1926
 k-point  6 :  -0.3125 0.0833 0.0833  plane waves:    1920
 k-point  7 :  -0.1875 0.0833 0.0833  plane waves:    1924
 k-point  8 :  -0.0625 0.0833 0.0833  plane waves:    1920
 k-point  9 :   0.0625 0.2500 0.0833  plane waves:    1928
 k-point 10 :   0.1875 0.2500 0.0833  plane waves:    1920
 k-point 11 :   0.3125 0.2500 0.0833  plane waves:    1919
 k-point 12 :   0.4375 0.2500 0.0833  plane waves:    1918
 k-point 13 :  -0.4375 0.2500 0.0833  plane waves:    1918
 k-point 14 :  -0.3125 0.2500 0.0833  plane waves:    1919
 k-point 15 :  -0.1875 0.2500 0.0833  plane waves:    1920
 k-point 16 :  -0.0625 0.2500 0.0833  plane waves:    1928
 k-point 17 :   0.0625 0.4167 0.0833  plane waves:    1921
 k-point 18 :   0.1875 0.4167 0.0833  plane waves:    1927
 k-point 19 :   0.3125 0.4167 0.0833  plane waves:    1913
 k-point 20 :   0.4375 0.4167 0.0833  plane waves:    1907
 k-point 21 :  -0.4375 0.4167 0.0833  plane waves:    1907
 k-point 22 :  -0.3125 0.4167 0.0833  plane waves:    1913
 k-point 23 :  -0.1875 0.4167 0.0833  plane waves:    1927
 k-point 24 :  -0.0625 0.4167 0.0833  plane waves:    1921
 k-point 25 :   0.0625-0.4167 0.0833  plane waves:    1922
 k-point 26 :   0.1875-0.4167 0.0833  plane waves:    1926
 k-point 27 :   0.3125-0.4167 0.0833  plane waves:    1915
 k-point 28 :   0.4375-0.4167 0.0833  plane waves:    1907
 k-point 29 :  -0.4375-0.4167 0.0833  plane waves:    1907
 k-point 30 :  -0.3125-0.4167 0.0833  plane waves:    1915
 k-point 31 :  -0.1875-0.4167 0.0833  plane waves:    1926
 k-point 32 :  -0.0625-0.4167 0.0833  plane waves:    1922
 k-point 33 :   0.0625-0.2500 0.0833  plane waves:    1934
 k-point 34 :   0.1875-0.2500 0.0833  plane waves:    1923
 k-point 35 :   0.3125-0.2500 0.0833  plane waves:    1918
 k-point 36 :   0.4375-0.2500 0.0833  plane waves:    1915
 k-point 37 :  -0.4375-0.2500 0.0833  plane waves:    1915
 k-point 38 :  -0.3125-0.2500 0.0833  plane waves:    1918
 k-point 39 :  -0.1875-0.2500 0.0833  plane waves:    1923
 k-point 40 :  -0.0625-0.2500 0.0833  plane waves:    1934
 k-point 41 :   0.0625-0.0833 0.0833  plane waves:    1929
 k-point 42 :   0.1875-0.0833 0.0833  plane waves:    1926
 k-point 43 :   0.3125-0.0833 0.0833  plane waves:    1917
 k-point 44 :   0.4375-0.0833 0.0833  plane waves:    1918
 k-point 45 :  -0.4375-0.0833 0.0833  plane waves:    1918
 k-point 46 :  -0.3125-0.0833 0.0833  plane waves:    1917
 k-point 47 :  -0.1875-0.0833 0.0833  plane waves:    1926
 k-point 48 :  -0.0625-0.0833 0.0833  plane waves:    1929
 k-point 49 :   0.0625 0.0833 0.2500  plane waves:    1919
 k-point 50 :   0.1875 0.0833 0.2500  plane waves:    1923
 k-point 51 :   0.3125 0.0833 0.2500  plane waves:    1921
 k-point 52 :   0.4375 0.0833 0.2500  plane waves:    1923
 k-point 53 :  -0.4375 0.0833 0.2500  plane waves:    1923
 k-point 54 :  -0.3125 0.0833 0.2500  plane waves:    1921
 k-point 55 :  -0.1875 0.0833 0.2500  plane waves:    1923
 k-point 56 :  -0.0625 0.0833 0.2500  plane waves:    1919
 k-point 57 :   0.0625 0.2500 0.2500  plane waves:    1923
 k-point 58 :   0.1875 0.2500 0.2500  plane waves:    1913
 k-point 59 :   0.3125 0.2500 0.2500  plane waves:    1906
 k-point 60 :   0.4375 0.2500 0.2500  plane waves:    1914
 k-point 61 :  -0.4375 0.2500 0.2500  plane waves:    1914
 k-point 62 :  -0.3125 0.2500 0.2500  plane waves:    1906
 k-point 63 :  -0.1875 0.2500 0.2500  plane waves:    1913
 k-point 64 :  -0.0625 0.2500 0.2500  plane waves:    1923
 k-point 65 :   0.0625 0.4167 0.2500  plane waves:    1921
 k-point 66 :   0.1875 0.4167 0.2500  plane waves:    1920
 k-point 67 :   0.3125 0.4167 0.2500  plane waves:    1915
 k-point 68 :   0.4375 0.4167 0.2500  plane waves:    1899
 k-point 69 :  -0.4375 0.4167 0.2500  plane waves:    1899
 k-point 70 :  -0.3125 0.4167 0.2500  plane waves:    1915
 k-point 71 :  -0.1875 0.4167 0.2500  plane waves:    1920
 k-point 72 :  -0.0625 0.4167 0.2500  plane waves:    1921
 k-point 73 :   0.0625-0.4167 0.2500  plane waves:    1925
 k-point 74 :   0.1875-0.4167 0.2500  plane waves:    1923
 k-point 75 :   0.3125-0.4167 0.2500  plane waves:    1918
 k-point 76 :   0.4375-0.4167 0.2500  plane waves:    1905
 k-point 77 :  -0.4375-0.4167 0.2500  plane waves:    1905
 k-point 78 :  -0.3125-0.4167 0.2500  plane waves:    1918
 k-point 79 :  -0.1875-0.4167 0.2500  plane waves:    1923
 k-point 80 :  -0.0625-0.4167 0.2500  plane waves:    1925
 k-point 81 :   0.0625-0.2500 0.2500  plane waves:    1941
 k-point 82 :   0.1875-0.2500 0.2500  plane waves:    1930
 k-point 83 :   0.3125-0.2500 0.2500  plane waves:    1921
 k-point 84 :   0.4375-0.2500 0.2500  plane waves:    1909
 k-point 85 :  -0.4375-0.2500 0.2500  plane waves:    1909
 k-point 86 :  -0.3125-0.2500 0.2500  plane waves:    1921
 k-point 87 :  -0.1875-0.2500 0.2500  plane waves:    1930
 k-point 88 :  -0.0625-0.2500 0.2500  plane waves:    1941
 k-point 89 :   0.0625-0.0833 0.2500  plane waves:    1931
 k-point 90 :   0.1875-0.0833 0.2500  plane waves:    1923
 k-point 91 :   0.3125-0.0833 0.2500  plane waves:    1919
 k-point 92 :   0.4375-0.0833 0.2500  plane waves:    1922
 k-point 93 :  -0.4375-0.0833 0.2500  plane waves:    1922
 k-point 94 :  -0.3125-0.0833 0.2500  plane waves:    1919
 k-point 95 :  -0.1875-0.0833 0.2500  plane waves:    1923
 k-point 96 :  -0.0625-0.0833 0.2500  plane waves:    1931
 k-point 97 :   0.0625 0.0833 0.4167  plane waves:    1922
 k-point 98 :   0.1875 0.0833 0.4167  plane waves:    1922
 k-point 99 :   0.3125 0.0833 0.4167  plane waves:    1918
 k-point ** :   0.4375 0.0833 0.4167  plane waves:    1912
 k-point ** :  -0.4375 0.0833 0.4167  plane waves:    1912
 k-point ** :  -0.3125 0.0833 0.4167  plane waves:    1918
 k-point ** :  -0.1875 0.0833 0.4167  plane waves:    1922
 k-point ** :  -0.0625 0.0833 0.4167  plane waves:    1922
 k-point ** :   0.0625 0.2500 0.4167  plane waves:    1926
 k-point ** :   0.1875 0.2500 0.4167  plane waves:    1915
 k-point ** :   0.3125 0.2500 0.4167  plane waves:    1918
 k-point ** :   0.4375 0.2500 0.4167  plane waves:    1904
 k-point ** :  -0.4375 0.2500 0.4167  plane waves:    1904
 k-point ** :  -0.3125 0.2500 0.4167  plane waves:    1918
 k-point ** :  -0.1875 0.2500 0.4167  plane waves:    1915
 k-point ** :  -0.0625 0.2500 0.4167  plane waves:    1926
 k-point ** :   0.0625 0.4167 0.4167  plane waves:    1932
 k-point ** :   0.1875 0.4167 0.4167  plane waves:    1920
 k-point ** :   0.3125 0.4167 0.4167  plane waves:    1909
 k-point ** :   0.4375 0.4167 0.4167  plane waves:    1891
 k-point ** :  -0.4375 0.4167 0.4167  plane waves:    1891
 k-point ** :  -0.3125 0.4167 0.4167  plane waves:    1909
 k-point ** :  -0.1875 0.4167 0.4167  plane waves:    1920
 k-point ** :  -0.0625 0.4167 0.4167  plane waves:    1932
 k-point ** :   0.0625-0.4167 0.4167  plane waves:    1925
 k-point ** :   0.1875-0.4167 0.4167  plane waves:    1920
 k-point ** :   0.3125-0.4167 0.4167  plane waves:    1918
 k-point ** :   0.4375-0.4167 0.4167  plane waves:    1897
 k-point ** :  -0.4375-0.4167 0.4167  plane waves:    1897
 k-point ** :  -0.3125-0.4167 0.4167  plane waves:    1918
 k-point ** :  -0.1875-0.4167 0.4167  plane waves:    1920
 k-point ** :  -0.0625-0.4167 0.4167  plane waves:    1925
 k-point ** :   0.0625-0.2500 0.4167  plane waves:    1927
 k-point ** :   0.1875-0.2500 0.4167  plane waves:    1924
 k-point ** :   0.3125-0.2500 0.4167  plane waves:    1918
 k-point ** :   0.4375-0.2500 0.4167  plane waves:    1899
 k-point ** :  -0.4375-0.2500 0.4167  plane waves:    1899
 k-point ** :  -0.3125-0.2500 0.4167  plane waves:    1918
 k-point ** :  -0.1875-0.2500 0.4167  plane waves:    1924
 k-point ** :  -0.0625-0.2500 0.4167  plane waves:    1927
 k-point ** :   0.0625-0.0833 0.4167  plane waves:    1926
 k-point ** :   0.1875-0.0833 0.4167  plane waves:    1930
 k-point ** :   0.3125-0.0833 0.4167  plane waves:    1913
 k-point ** :   0.4375-0.0833 0.4167  plane waves:    1907
 k-point ** :  -0.4375-0.0833 0.4167  plane waves:    1907
 k-point ** :  -0.3125-0.0833 0.4167  plane waves:    1913
 k-point ** :  -0.1875-0.0833 0.4167  plane waves:    1930
 k-point ** :  -0.0625-0.0833 0.4167  plane waves:    1926

 maximum and minimum number of plane-waves per node :        89       66

 maximum number of plane-waves:      1941
 maximum index in each direction: 
   IXMAX=    5   IYMAX=    9   IZMAX=    9
   IXMIN=   -5   IYMIN=   -9   IZMIN=   -9

 NGX is ok and might be reduce to  22
 NGY is ok and might be reduce to  38
 NGZ is ok and might be reduce to  38

 real space projection operators:
  total allocation   :       2578.52 KBytes
  max/ min on nodes  :        123.86         94.91


 parallel 3D FFT for wavefunctions:
    minimum data exchange during FFTs selected (reduces bandwidth)
 parallel 3D FFT for charge:
    minimum data exchange during FFTs selected (reduces bandwidth)


 total amount of memory used by VASP on root node    49405. kBytes
========================================================================

   base      :      30000. kBytes
   nonlr-proj:        892. kBytes
   fftplans  :        493. kBytes
   grid      :       1281. kBytes
   one-center:         31. kBytes
   wavefun   :      16708. kBytes
 
     INWAV:  cpu time    0.0010: real time    0.0001
 Broyden mixing: mesh for mixing (old mesh)
   NGX = 11   NGY = 19   NGZ = 19
  (NGX  = 48   NGY  = 80   NGZ  = 80)
  gives a total of   3971 points

 initial charge density was supplied:
 number of electron      61.9999969 magnetization      -0.0000000
 keeping initial charge density in first step


--------------------------------------------------------------------------------------------------------


 Maximum index for non-local projection operator          377
 Maximum index for augmentation-charges          617 (set IRDMAX)


--------------------------------------------------------------------------------------------------------


 First call to EWALD:  gamma=   0.427
 Maximum number of real-space cells 4x 2x 2
 Maximum number of reciprocal cells 2x 3x 3

 FEWALD executed in parallel
    FEWALD:  cpu time    0.0010: real time    0.0015


----------------------------------------- Iteration    1(   1)  ---------------------------------------


    POTLOK:  cpu time    0.0150: real time    0.0153
    SETDIJ:  cpu time    0.0070: real time    0.0063
     EDDAV:  cpu time    7.0179: real time    7.0155
 BZINTS: Fermi energy: 23.928027; 62.000000 electrons
         Band energy:-289.029195;  BLOECHL correction: -0.371943
       DOS:  cpu time    0.1100: real time    0.1099
    --------------------------------------------
      LOOP:  cpu time    7.1519: real time    7.1505

 eigenvalue-minimisations  : 23792
 total energy-change (2. order) : 0.7209206E+03  (-0.3950487E+04)
 number of electron      61.9999969 magnetization      -0.0000000
 augmentation part       61.9999969 magnetization      -0.0000000

 Free energy of the ion-electron system (eV)
  ---------------------------------------------------
  alpha Z        PSCENC =       277.14014765
  Ewald energy   TEWEN  =     -5399.77401846
  -Hartree energ DENC   =     -3032.54466840
  -exchange      EXHF   =         0.00000000
  -V(xc)+E(xc)   XCENC  =       310.18374963
  PAW double counting   =      8446.47095043    -8728.63498999
  entropy T*S    EENTRO =         0.00000000
  eigenvalues    EBANDS =      -289.02919457
  atomic energy  EATOM  =      9137.10866316
  Solvation  Ediel_sol  =         0.00000000
  ---------------------------------------------------
  free energy    TOTEN  =       720.92063946 eV

  energy without entropy =      720.92063946  energy(sigma->0) =      720.92063946


--------------------------------------------------------------------------------------------------------




----------------------------------------- Iteration    1(   2)  ---------------------------------------


     EDDAV:  cpu time    7.2529: real time    7.2507
 BZINTS: Fermi energy:  4.281038; 62.000000 electrons
         Band energy:-995.893943;  BLOECHL correction: -0.110054
       DOS:  cpu time    0.1270: real time    0.1271
    --------------------------------------------
      LOOP:  cpu time    7.3809: real time    7.3798

 eigenvalue-minimisations  : 24847
 total energy-change (2. order) :-0.7068647E+03  (-0.6900898E+03)
 number of electron      61.9999969 magnetization      -0.0000000
 augmentation part       61.9999969 magnetization      -0.0000000

 Free energy of the ion-electron system (eV)
  ---------------------------------------------------
  alpha Z        PSCENC =       277.14014765
  Ewald energy   TEWEN  =     -5399.77401846
  -Hartree energ DENC   =     -3032.54466840
  -exchange      EXHF   =         0.00000000
  -V(xc)+E(xc)   XCENC  =       310.18374963
  PAW double counting   =      8446.47095043    -8728.63498999
  entropy T*S    EENTRO =         0.00000000
  eigenvalues    EBANDS =      -995.89394282
  atomic energy  EATOM  =      9137.10866316
  Solvation  Ediel_sol  =         0.00000000
  ---------------------------------------------------
  free energy    TOTEN  =        14.05589121 eV

  energy without entropy =       14.05589121  energy(sigma->0) =       14.05589121


--------------------------------------------------------------------------------------------------------




----------------------------------------- Iteration    1(   3)  ---------------------------------------


     EDDAV:  cpu time    8.1548: real time    8.1519
 BZINTS: Fermi energy:  2.721797; 62.000000 electrons
         Band energy:***********;  BLOECHL correction:  0.000000
       DOS:  cpu time    0.0160: real time    0.0172
    --------------------------------------------
      LOOP:  cpu time    8.1728: real time    8.1715

 eigenvalue-minimisations  : 28450
 total energy-change (2. order) :-0.5375264E+02  (-0.5217750E+02)
 number of electron      61.9999969 magnetization      -0.0000000
 augmentation part       61.9999969 magnetization      -0.0000000

 Free energy of the ion-electron system (eV)
  ---------------------------------------------------
  alpha Z        PSCENC =       277.14014765
  Ewald energy   TEWEN  =     -5399.77401846
  -Hartree energ DENC   =     -3032.54466840
  -exchange      EXHF   =         0.00000000
  -V(xc)+E(xc)   XCENC  =       310.18374963
  PAW double counting   =      8446.47095043    -8728.63498999
  entropy T*S    EENTRO =         0.00000000
  eigenvalues    EBANDS =     -1049.64657789
  atomic energy  EATOM  =      9137.10866316
  Solvation  Ediel_sol  =         0.00000000
  ---------------------------------------------------
  free energy    TOTEN  =       -39.69674386 eV

  energy without entropy =      -39.69674386  energy(sigma->0) =      -39.69674386


--------------------------------------------------------------------------------------------------------




----------------------------------------- Iteration    1(   4)  ---------------------------------------


     EDDAV:  cpu time    9.1686: real time    9.1660
 BZINTS: Fermi energy:  2.680485; 62.000000 electrons
         Band energy:***********;  BLOECHL correction:  0.000000
       DOS:  cpu time    0.0150: real time    0.0164
    --------------------------------------------
      LOOP:  cpu time    9.1846: real time    9.1843

 eigenvalue-minimisations  : 33060
 total energy-change (2. order) :-0.2313040E+01  (-0.2302858E+01)
 number of electron      61.9999969 magnetization      -0.0000000
 augmentation part       61.9999969 magnetization      -0.0000000

 Free energy of the ion-electron system (eV)
  ---------------------------------------------------
  alpha Z        PSCENC =       277.14014765
  Ewald energy   TEWEN  =     -5399.77401846
  -Hartree energ DENC   =     -3032.54466840
  -exchange      EXHF   =         0.00000000
  -V(xc)+E(xc)   XCENC  =       310.18374963
  PAW double counting   =      8446.47095043    -8728.63498999
  entropy T*S    EENTRO =         0.00000000
  eigenvalues    EBANDS =     -1051.95961741
  atomic energy  EATOM  =      9137.10866316
  Solvation  Ediel_sol  =         0.00000000
  ---------------------------------------------------
  free energy    TOTEN  =       -42.00978338 eV

  energy without entropy =      -42.00978338  energy(sigma->0) =      -42.00978338


--------------------------------------------------------------------------------------------------------




----------------------------------------- Iteration    1(   5)  ---------------------------------------


     EDDAV:  cpu time    8.0178: real time    8.0146
 BZINTS: Fermi energy:  2.734765; 62.000000 electrons
         Band energy:***********;  BLOECHL correction:  0.000000
       DOS:  cpu time    0.0180: real time    0.0192
    CHARGE:  cpu time    0.4249: real time    0.4242
    MIXING:  cpu time    0.0010: real time    0.0007
    --------------------------------------------
      LOOP:  cpu time    8.4637: real time    8.4627

 eigenvalue-minimisations  : 28070
 total energy-change (2. order) :-0.1098128E+00  (-0.1098033E+00)
 number of electron      62.0000044 magnetization      -0.0000000
 augmentation part       24.2782343 magnetization       0.0005683

 Broyden mixing:
  rms(total) = 0.19271E+01    rms(broyden)= 0.19256E+01
  rms(prec ) = 0.30369E+01
  weight for this iteration     100.00

 Free energy of the ion-electron system (eV)
  ---------------------------------------------------
  alpha Z        PSCENC =       277.14014765
  Ewald energy   TEWEN  =     -5399.77401846
  -Hartree energ DENC   =     -3032.54466840
  -exchange      EXHF   =         0.00000000
  -V(xc)+E(xc)   XCENC  =       310.18374963
  PAW double counting   =      8446.47095043    -8728.63498999
  entropy T*S    EENTRO =         0.00000000
  eigenvalues    EBANDS =     -1052.06943022
  atomic energy  EATOM  =      9137.10866316
  Solvation  Ediel_sol  =         0.00000000
  ---------------------------------------------------
  free energy    TOTEN  =       -42.11959619 eV

  energy without entropy =      -42.11959619  energy(sigma->0) =      -42.11959619


--------------------------------------------------------------------------------------------------------




----------------------------------------- Iteration    1(   6)  ---------------------------------------


    POTLOK:  cpu time    0.0140: real time    0.0153
    SETDIJ:  cpu time    0.0070: real time    0.0063
    EDDIAG:  cpu time    1.4268: real time    1.4258
  RMM-DIIS:  cpu time    4.5523: real time    4.5503
    ORTHCH:  cpu time    0.0410: real time    0.0410
 BZINTS: Fermi energy:  3.899676; 62.000000 electrons
         Band energy:-930.154892;  BLOECHL correction:  0.000000
       DOS:  cpu time    0.0160: real time    0.0164
    CHARGE:  cpu time    0.4229: real time    0.4229
    MIXING:  cpu time    0.0010: real time    0.0006
    --------------------------------------------
      LOOP:  cpu time    6.4820: real time    6.4812

 eigenvalue-minimisations  : 21317
 total energy-change (2. order) : 0.1018515E+01  (-0.2276606E+01)
 number of electron      62.0000039 magnetization      -0.0000000
 augmentation part       22.5402109 magnetization       0.0004441

 Broyden mixing:
  rms(total) = 0.22713E+01    rms(broyden)= 0.22704E+01
  rms(prec ) = 0.34702E+01
  weight for this iteration     100.00

 eigenvalues of (default mixing * dielectric matrix)
  average eigenvalue GAMMA=   0.3915
  0.3915

 Free energy of the ion-electron system (eV)
  ---------------------------------------------------
  alpha Z        PSCENC =       277.14014765
  Ewald energy   TEWEN  =     -5399.77401846
  -Hartree energ DENC   =     -3143.85322674
  -exchange      EXHF   =         0.00000000
  -V(xc)+E(xc)   XCENC  =       313.82491803
  PAW double counting   =      8661.54551971    -8956.93819346
  entropy T*S    EENTRO =         0.00000000
  eigenvalues    EBANDS =      -930.15489155
  atomic energy  EATOM  =      9137.10866316
  Solvation  Ediel_sol  =         0.00000000
  ---------------------------------------------------
  free energy    TOTEN  =       -41.10108166 eV

  energy without entropy =      -41.10108166  energy(sigma->0) =      -41.10108166


--------------------------------------------------------------------------------------------------------




----------------------------------------- Iteration    1(   7)  ---------------------------------------


    POTLOK:  cpu time    0.0150: real time    0.0152
    SETDIJ:  cpu time    0.0060: real time    0.0060
    EDDIAG:  cpu time    1.4308: real time    1.4295
  RMM-DIIS:  cpu time    4.7063: real time    4.7055
    ORTHCH:  cpu time    0.0410: real time    0.0411
 BZINTS: Fermi energy:  3.523655; 62.000000 electrons
         Band energy:-978.803815;  BLOECHL correction:  0.000000
       DOS:  cpu time    0.0200: real time    0.0192
    CHARGE:  cpu time    0.4199: real time    0.4207
    MIXING:  cpu time    0.0010: real time    0.0005
    --------------------------------------------
      LOOP:  cpu time    6.6400: real time    6.6394

 eigenvalue-minimisations  : 21879
 total energy-change (2. order) : 0.2894095E+01  (-0.5448007E+00)
 number of electron      62.0000042 magnetization      -0.0000000
 augmentation part       23.2802521 magnetization       0.0002877

 Broyden mixing:
  rms(total) = 0.73813E+00    rms(broyden)= 0.73756E+00
  rms(prec ) = 0.95540E+00
  weight for this iteration     100.00

 eigenvalues of (default mixing * dielectric matrix)
  average eigenvalue GAMMA=   0.6266
  0.7553  0.4979

 Free energy of the ion-electron system (eV)
  ---------------------------------------------------
  alpha Z        PSCENC =       277.14014765
  Ewald energy   TEWEN  =     -5399.77401846
  -Hartree energ DENC   =     -3100.16712587
  -exchange      EXHF   =         0.00000000
  -V(xc)+E(xc)   XCENC  =       313.19024961
  PAW double counting   =      8480.73532620    -8767.63641313
  entropy T*S    EENTRO =         0.00000000
  eigenvalues    EBANDS =      -978.80381540
  atomic energy  EATOM  =      9137.10866316
  Solvation  Ediel_sol  =         0.00000000
  ---------------------------------------------------
  free energy    TOTEN  =       -38.20698624 eV

  energy without entropy =      -38.20698624  energy(sigma->0) =      -38.20698624


--------------------------------------------------------------------------------------------------------




----------------------------------------- Iteration    1(   8)  ---------------------------------------


    POTLOK:  cpu time    0.0150: real time    0.0151
    SETDIJ:  cpu time    0.0060: real time    0.0060
    EDDIAG:  cpu time    1.4288: real time    1.4280
  RMM-DIIS:  cpu time    4.6523: real time    4.6513
    ORTHCH:  cpu time    0.0410: real time    0.0411
 BZINTS: Fermi energy:  3.385127; 62.000000 electrons
         Band energy:-982.078405;  BLOECHL correction: -0.010048
       DOS:  cpu time    0.1060: real time    0.1067
    CHARGE:  cpu time    0.4259: real time    0.4300
    MIXING:  cpu time    0.0010: real time    0.0005
    --------------------------------------------
      LOOP:  cpu time    6.6760: real time    6.6806

 eigenvalue-minimisations  : 21756
 total energy-change (2. order) : 0.2449894E+00  (-0.1029951E+00)
 number of electron      62.0000042 magnetization       0.0002076
 augmentation part       23.3716865 magnetization       0.0001409

 Broyden mixing:
  rms(total) = 0.42211E+00    rms(broyden)= 0.42120E+00
  rms(prec ) = 0.54981E+00
  weight for this iteration     100.00

 eigenvalues of (default mixing * dielectric matrix)
  average eigenvalue GAMMA=   0.8362
  1.3166  0.4737  0.7183

 Free energy of the ion-electron system (eV)
  ---------------------------------------------------
  alpha Z        PSCENC =       277.14014765
  Ewald energy   TEWEN  =     -5399.77401846
  -Hartree energ DENC   =     -3101.15660983
  -exchange      EXHF   =         0.00000000
  -V(xc)+E(xc)   XCENC  =       313.69153369
  PAW double counting   =      8315.74634553    -8598.63965383
  entropy T*S    EENTRO =         0.00000000
  eigenvalues    EBANDS =      -982.07840475
  atomic energy  EATOM  =      9137.10866316
  Solvation  Ediel_sol  =         0.00000000
  ---------------------------------------------------
  free energy    TOTEN  =       -37.96199684 eV

  energy without entropy =      -37.96199684  energy(sigma->0) =      -37.96199684


--------------------------------------------------------------------------------------------------------




----------------------------------------- Iteration    1(   9)  ---------------------------------------


[...]
      6     -58.5852      1.00000
      7     -39.4949      1.00000
      8     -39.4751      1.00000
      9     -14.1387      1.00000
     10     -13.2867      1.00000
     11     -13.2243      1.00000
     12     -12.8855      1.00000
     13      -2.1818      1.00000
     14      -2.0366      1.00000
     15      -1.5739      1.00000
     16      -1.3600      1.00000
     17      -1.1844      1.00000
     18      -0.8502      1.00000
     19      -0.5357      1.00000
     20      -0.1345      1.00000
     21       0.3374      1.00000
     22       0.7888      1.00000
     23       0.9005      1.00000
     24       1.3470      1.00000
     25       1.6608      1.00000
     26       1.9157      1.00000
     27       2.0453      1.00000
     28       2.1698      1.00000
     29       2.7243      1.00000
     30       3.0984      1.00000
     31       3.6792      1.00000
     32       4.9266      0.00000
     33       6.4652      0.00000
     34       7.1377      0.00000
     35      12.4141      0.00000
     36      13.4285      0.00000
     37      14.3351      0.00000

 k-point   139 :       0.3125   -0.0833    0.4167
  band No.  band energies     occupation 
      1     -60.4936      1.00000
      2     -60.4483      1.00000
      3     -60.2655      1.00000
      4     -59.3593      1.00000
      5     -59.3331      1.00000
      6     -58.5841      1.00000
      7     -39.4843      1.00000
      8     -39.4707      1.00000
      9     -13.7105      1.00000
     10     -13.1505      1.00000
     11     -13.0498      1.00000
     12     -12.8707      1.00000
     13      -2.1496      1.00000
     14      -1.7349      1.00000
     15      -1.6096      1.00000
     16      -1.4840      1.00000
     17      -1.0978      1.00000
     18      -0.9484      1.00000
     19      -0.7182      1.00000
     20      -0.3265      1.00000
     21       0.2359      1.00000
     22       0.4188      1.00000
     23       0.7373      1.00000
     24       0.8995      1.00000
     25       1.7367      1.00000
     26       1.7634      1.00000
     27       1.9735      1.00000
     28       2.1139      1.00000
     29       2.3974      1.00000
     30       3.0668      1.00000
     31       3.4878      1.00000
     32       4.6728      0.00000
     33       6.3682      0.00000
     34       7.1023      0.00000
     35      13.6750      0.00000
     36      13.8757      0.00000
     37      14.5436      0.00000

 k-point   140 :       0.4375   -0.0833    0.4167
  band No.  band energies     occupation 
      1     -60.5025      1.00000
      2     -60.4471      1.00000
      3     -60.2648      1.00000
      4     -59.3688      1.00000
      5     -59.3319      1.00000
      6     -58.5834      1.00000
      7     -39.4755      1.00000
      8     -39.4689      1.00000
      9     -13.3156      1.00000
     10     -13.0633      1.00000
     11     -12.9542      1.00000
     12     -12.8778      1.00000
     13      -2.5316      1.00000
     14      -1.9710      1.00000
     15      -1.6511      1.00000
     16      -1.5579      1.00000
     17      -1.0663      1.00000
     18      -0.6930      1.00000
     19      -0.5330      1.00000
     20      -0.1747      1.00000
     21       0.1936      1.00000
     22       0.5813      1.00000
     23       0.6530      1.00000
     24       0.8193      1.00000
     25       1.3189      1.00000
     26       1.4477      1.00000
     27       1.5147      1.00000
     28       1.9577      1.00000
     29       2.6105      1.00000
     30       2.9851      1.00000
     31       3.4044      1.00000
     32       4.6950      0.00000
     33       6.4356      0.00000
     34       7.0455      0.00000
     35      13.9875      0.00000
     36      14.2106      0.00000
     37      14.6323      0.00000

 k-point   141 :      -0.4375   -0.0833    0.4167
  band No.  band energies     occupation 
      1     -60.5025      1.00000
      2     -60.4471      1.00000
      3     -60.2648      1.00000
      4     -59.3688      1.00000
      5     -59.3319      1.00000
      6     -58.5834      1.00000
      7     -39.4755      1.00000
      8     -39.4689      1.00000
      9     -13.3156      1.00000
     10     -13.0634      1.00000
     11     -12.9542      1.00000
     12     -12.8778      1.00000
     13      -2.5316      1.00000
     14      -1.9711      1.00000
     15      -1.6513      1.00000
     16      -1.5578      1.00000
     17      -1.0661      1.00000
     18      -0.6931      1.00000
     19      -0.5329      1.00000
     20      -0.1748      1.00000
     21       0.1937      1.00000
     22       0.5817      1.00000
     23       0.6526      1.00000
     24       0.8191      1.00000
     25       1.3193      1.00000
     26       1.4476      1.00000
     27       1.5146      1.00000
     28       1.9576      1.00000
     29       2.6102      1.00000
     30       2.9855      1.00000
     31       3.4043      1.00000
     32       4.6951      0.00000
     33       6.4357      0.00000
     34       7.0455      0.00000
     35      13.9873      0.00000
     36      14.2112      0.00000
     37      14.6322      0.00000

 k-point   142 :      -0.3125   -0.0833    0.4167
  band No.  band energies     occupation 
      1     -60.4936      1.00000
      2     -60.4483      1.00000
      3     -60.2655      1.00000
      4     -59.3593      1.00000
      5     -59.3331      1.00000
      6     -58.5841      1.00000
      7     -39.4843      1.00000
      8     -39.4707      1.00000
      9     -13.7105      1.00000
     10     -13.1505      1.00000
     11     -13.0498      1.00000
     12     -12.8707      1.00000
     13      -2.1496      1.00000
     14      -1.7350      1.00000
     15      -1.6099      1.00000
     16      -1.4838      1.00000
     17      -1.0978      1.00000
     18      -0.9482      1.00000
     19      -0.7181      1.00000
     20      -0.3263      1.00000
     21       0.2367      1.00000
     22       0.4182      1.00000
     23       0.7370      1.00000
     24       0.8994      1.00000
     25       1.7365      1.00000
     26       1.7636      1.00000
     27       1.9737      1.00000
     28       2.1138      1.00000
     29       2.3972      1.00000
     30       3.0668      1.00000
     31       3.4876      1.00000
     32       4.6732      0.00000
     33       6.3685      0.00000
     34       7.1022      0.00000
     35      13.6749      0.00000
     36      13.8756      0.00000
     37      14.5444      0.00000

 k-point   143 :      -0.1875   -0.0833    0.4167
  band No.  band energies     occupation 
      1     -60.4810      1.00000
      2     -60.4500      1.00000
      3     -60.2665      1.00000
      4     -59.3459      1.00000
      5     -59.3350      1.00000
      6     -58.5852      1.00000
      7     -39.4949      1.00000
      8     -39.4751      1.00000
      9     -14.1388      1.00000
     10     -13.2867      1.00000
     11     -13.2242      1.00000
     12     -12.8855      1.00000
     13      -2.1818      1.00000
     14      -2.0367      1.00000
     15      -1.5740      1.00000
     16      -1.3599      1.00000
     17      -1.1844      1.00000
     18      -0.8502      1.00000
     19      -0.5356      1.00000
     20      -0.1343      1.00000
     21       0.3378      1.00000
     22       0.7885      1.00000
     23       0.9004      1.00000
     24       1.3470      1.00000
     25       1.6602      1.00000
     26       1.9157      1.00000
     27       2.0458      1.00000
     28       2.1701      1.00000
     29       2.7240      1.00000
     30       3.0983      1.00000
     31       3.6791      1.00000
     32       4.9269      0.00000
     33       6.4655      0.00000
     34       7.1375      0.00000
     35      12.4139      0.00000
     36      13.4285      0.00000
     37      14.3353      0.00000

 k-point   144 :      -0.0625   -0.0833    0.4167
  band No.  band energies     occupation 
      1     -60.4719      1.00000
      2     -60.4511      1.00000
      3     -60.2672      1.00000
      4     -59.3364      1.00000
      5     -59.3360      1.00000
      6     -58.5859      1.00000
      7     -39.5019      1.00000
      8     -39.4787      1.00000
      9     -14.4003      1.00000
     10     -13.4282      1.00000
     11     -13.3053      1.00000
     12     -12.9027      1.00000
     13      -2.5794      1.00000
     14      -2.1770      1.00000
     15      -1.8103      1.00000
     16      -1.0936      1.00000
     17      -0.9655      1.00000
     18      -0.7121      1.00000
     19      -0.3654      1.00000
     20      -0.1691      1.00000
     21       0.5807      1.00000
     22       0.6718      1.00000
     23       1.4640      1.00000
     24       1.5345      1.00000
     25       1.8559      1.00000
     26       1.9308      1.00000
     27       2.0905      1.00000
     28       2.1653      1.00000
     29       2.8898      1.00000
     30       3.1722      1.00000
     31       3.7459      1.00000
     32       5.4063      0.00000
     33       6.7966      0.00000
     34       7.1122      0.00000
     35      11.4291      0.00000
     36      12.8281      0.00000
     37      13.8345      0.00000


--------------------------------------------------------------------------------------------------------


 soft charge-density along one line, spin component           1
         0         1         2         3         4         5         6         7         8         9
 total charge-density along one line
 
 soft charge-density along one line, spin component           2
         0         1         2         3         4         5         6         7         8         9
 total charge-density along one line
 
 pseudopotential strength for first ion, spin component:           1
-37.298   3.864  -0.000   0.000   0.000
  3.864 -10.298   0.000  -0.000   0.000
 -0.000   0.000   0.179   0.000   0.000
  0.000  -0.000   0.000   0.179  -0.000
  0.000   0.000   0.000  -0.000   0.179
 pseudopotential strength for first ion, spin component:           2
-37.301   3.862  -0.000   0.000   0.000
  3.862 -10.296   0.000  -0.000   0.000
 -0.000   0.000   0.177  -0.000   0.000
  0.000  -0.000  -0.000   0.177  -0.000
  0.000   0.000   0.000  -0.000   0.177
 total augmentation occupancy for first ion, spin component:           1
  2.000  -0.007  -0.000   0.000  -0.000
 -0.007   0.650   0.000  -0.000   0.000
 -0.000   0.000   0.023  -0.000  -0.000
  0.000  -0.000  -0.000   0.024   0.000
 -0.000   0.000  -0.000   0.000   0.022
 total augmentation occupancy for first ion, spin component:           2
  0.000   0.000  -0.000  -0.000   0.000
  0.000  -0.016   0.000  -0.000   0.000
 -0.000   0.000  -0.001  -0.001  -0.000
 -0.000  -0.000  -0.001  -0.001   0.000
  0.000   0.000  -0.000   0.000   0.000


------------------------ aborting loop because EDIFF is reached ----------------------------------------


 


 total charge     
 
# of ion     s       p       d       tot
----------------------------------------
  1        2.017   0.049   0.000   2.066
  2        2.017   0.049   0.000   2.066
  3        0.273   6.282   7.863  14.417
  4        0.273   6.282   7.863  14.417
  5        1.560   3.444   0.000   5.004
  6        1.560   3.444   0.000   5.004
  7        1.560   3.444   0.000   5.004
  8        1.560   3.444   0.000   5.004
------------------------------------------------
tot       10.820  26.438  15.725  52.983
 


 magnetization (x)
 
# of ion     s       p       d       tot
----------------------------------------
  1       -0.001  -0.001   0.000  -0.002
  2        0.001   0.001   0.000   0.002
  3       -0.011  -0.006  -1.066  -1.082
  4        0.011   0.006   1.066   1.082
  5       -0.003  -0.144   0.000  -0.147
  6        0.003   0.144   0.000   0.147
  7       -0.003  -0.144   0.000  -0.147
  8        0.003   0.144   0.000   0.147
------------------------------------------------
tot       -0.000  -0.000   0.000   0.000
 
    CHARGE:  cpu time    0.4179: real time    0.4164
    FORLOC:  cpu time    0.0010: real time    0.0012
    FORNL :  cpu time    1.9947: real time    1.9936
    STRESS:  cpu time    5.9501: real time    5.9481
    FORCOR:  cpu time    0.0150: real time    0.0155
    FORHAR:  cpu time    0.0020: real time    0.0024
    MIXING:  cpu time    0.0010: real time    0.0005
    OFIELD:  cpu time    0.0000: real time    0.0000

  FORCE on cell =-STRESS in cart. coord.  units (eV):
  Direction    XX          YY          ZZ          XY          YZ          ZX
  --------------------------------------------------------------------------------------
  Alpha Z   289.37765   289.37765   289.37765
  Ewald    -819.63368 -1283.02550 -3174.90873    -0.24285  -161.43546     0.12024
  Hartree  1803.76308  1548.03735   -92.97503    -0.12468   -62.55443     0.00834
  E(xc)    -383.98156  -384.64760  -384.63403    -0.00042    -0.36950     0.00047
  Local   -2047.33052 -1355.94025  2183.74987     0.35771   206.06507    -0.11657
  n-local  -297.70587  -302.70875  -301.60354    -0.00209    -3.48873     0.00283
  augment   418.41601   427.59099   424.58674     0.00209     6.19725    -0.00269
  Kinetic  1037.36724  1061.33517  1056.51259     0.00740    15.44641    -0.00531
  Fock        0.00000     0.00000     0.00000     0.00000     0.00000     0.00000
  -------------------------------------------------------------------------------------
  Total       0.27235     0.01905     0.10551    -0.00284    -0.13939     0.00732
  in kB       6.39235     0.44705     2.47650    -0.06668    -3.27173     0.17190
  external pressure =        3.11 kB  Pullay stress =        0.00 kB


 VOLUME and BASIS-vectors are now :
 -----------------------------------------------------------------------------
  energy-cutoff  :      520.00
  volume of cell :       68.26
      direct lattice vectors                 reciprocal lattice vectors
     2.790396043  0.000047706 -0.000191951     0.358372070 -0.000009651  0.000023257
     0.000129520  5.160451791  0.145663790    -0.000008569  0.195923160 -0.075873497
    -0.000261056  1.856099574  4.792884334     0.000014613 -0.005954434  0.210948555

  length of vectors
     2.790396050  5.162507205  5.139732088     0.358372070  0.210101576  0.211032577


 FORCES acting on ions
    electron-ion (+dipol)            ewald-force                    non-local-force                 convergence-correction
 -----------------------------------------------------------------------------------------------
   0.727E-04 0.286E-02 -.594E-02   -.680E-04 -.229E-02 0.575E-02   -.404E-05 -.720E-03 0.249E-03   0.347E-06 0.516E-04 -.156E-04
   -.185E-03 -.224E-02 0.108E-01   0.174E-03 0.173E-02 -.106E-01   0.123E-04 0.661E-03 -.313E-03   -.380E-06 -.521E-04 0.190E-04
   0.278E-02 0.110E+00 0.143E-01   -.275E-02 -.112E+00 -.144E-01   -.936E-04 -.342E-03 0.644E-03   0.408E-04 0.577E-03 0.255E-03
   -.286E-02 -.110E+00 -.176E-01   0.283E-02 0.112E+00 0.179E-01   0.967E-04 0.995E-04 -.864E-03   -.390E-04 -.411E-03 -.215E-03
   -.763E-01 0.520E+02 -.414E+03   0.818E-01 -.569E+02 0.428E+03   -.401E-02 0.491E+01 -.131E+02   -.324E-03 0.310E-02 -.264E-01
   0.768E-01 -.520E+02 0.414E+03   -.824E-01 0.569E+02 -.428E+03   0.404E-02 -.491E+01 0.131E+02   0.324E-03 -.317E-02 0.265E-01
   0.790E-01 -.520E+02 0.414E+03   -.848E-01 0.569E+02 -.427E+03   0.413E-02 -.491E+01 0.131E+02   0.319E-03 -.313E-02 0.265E-01
   -.794E-01 0.520E+02 -.414E+03   0.852E-01 -.569E+02 0.428E+03   -.415E-02 0.491E+01 -.131E+02   -.319E-03 0.320E-02 -.265E-01
 -----------------------------------------------------------------------------------------------
   -.252E-04 -.369E-04 0.384E-03   0.148E-13 -.426E-13 0.000E+00   0.185E-04 -.309E-03 -.411E-03   0.195E-05 0.164E-03 0.432E-04
 
 
 POSITION                                       TOTAL-FORCE (eV/Angst)
 -----------------------------------------------------------------------------------
     -0.00000      0.00012     -0.00003         0.000002     -0.000073      0.000041
      1.39526      2.58014      0.07278         0.000001      0.000119     -0.000087
     -0.00006      3.50833      2.46921        -0.000020     -0.001838      0.000799
      1.39506      0.92802      2.39641         0.000023      0.001682     -0.000758
     -0.00011      5.33197      3.59757         0.001214      0.027442      0.017954
      1.39524      4.26481      1.41372        -0.001230     -0.027008     -0.018238
     -0.00002      1.68458      1.34097        -0.001292     -0.028519     -0.016477
      1.39502      2.75179      3.52464         0.001302      0.028195      0.016766
 -----------------------------------------------------------------------------------
    total drift:                               -0.000005     -0.000182      0.000017


--------------------------------------------------------------------------------------------------------



  FREE ENERGIE OF THE ION-ELECTRON SYSTEM (eV)
  ---------------------------------------------------
  free  energy   TOTEN  =       -38.60365344 eV

  energy  without entropy=      -38.60365344  energy(sigma->0) =      -38.60365344
 
 d Force = 0.4415095E-03[ 0.342E-03, 0.541E-03]  d Energy = 0.1007986E-02-0.566E-03
 d Force =-0.3668157E-01[-0.400E-01,-0.334E-01]  d Ewald  =-0.4892496E+01 0.486E+01


--------------------------------------------------------------------------------------------------------


    POTLOK:  cpu time    0.0220: real time    0.0223


--------------------------------------------------------------------------------------------------------




--------------------------------------------------------------------------------------------------------


  
 reached required accuracy - stopping structural energy minimisation
     LOOP+:  cpu time   43.1134: real time   43.1144
    4ORBIT:  cpu time    0.0000: real time    0.0000
 


 total charge     
 
# of ion     s       p       d       tot
----------------------------------------
  1        2.017   0.049   0.000   2.066
  2        2.017   0.049   0.000   2.066
  3        0.273   6.282   7.863  14.417
  4        0.273   6.282   7.863  14.417
  5        1.560   3.444   0.000   5.004
  6        1.560   3.444   0.000   5.004
  7        1.560   3.444   0.000   5.004
  8        1.560   3.444   0.000   5.004
------------------------------------------------
tot       10.820  26.438  15.725  52.983
 


 magnetization (x)
 
# of ion     s       p       d       tot
----------------------------------------
  1       -0.001  -0.001   0.000  -0.002
  2        0.001   0.001   0.000   0.002
  3       -0.011  -0.006  -1.066  -1.082
  4        0.011   0.006   1.066   1.082
  5       -0.003  -0.144   0.000  -0.147
  6        0.003   0.144   0.000   0.147
  7       -0.003  -0.144   0.000  -0.147
  8        0.003   0.144   0.000   0.147
------------------------------------------------
tot       -0.000  -0.000   0.000   0.000
 
 BZINTS: Fermi energy:  4.204872; 62.000000 electrons
         Band energy:-961.492189;  BLOECHL correction:  0.000000

 total amount of memory used by VASP on root node    49405. kBytes
========================================================================

   base      :      30000. kBytes
   nonlr-proj:        892. kBytes
   fftplans  :        493. kBytes
   grid      :       1281. kBytes
   one-center:         31. kBytes
   wavefun   :      16708. kBytes
 
  
  
 General timing and accounting informations for this job:
 ========================================================
  
                  Total CPU time used (sec):      540.662
                            User time (sec):      536.766
                          System time (sec):        3.895
                         Elapsed time (sec):      540.941
  
                   Maximum memory used (kb):       92748.
                   Average memory used (kb):           0.
  
                          Minor page faults:        15452
                          Major page faults:            0
                 Voluntary context switches:         2303
