 vasp.5.4.1 24Jun15 (build Jan 18 2016 12:20:36) complex                        
  
 executed on           IFC91_ompi date 2018.02.24  17:46:31
 running on   24 total cores
 distrk:  each k-point on   24 cores,    1 groups
 distr:  one band on NCORES_PER_BAND=  24 cores,    1 groups


--------------------------------------------------------------------------------------------------------


 INCAR:
 POTCAR:    PAW_PBE Li_sv 10Sep2004               
 POTCAR:    PAW_PBE Mn_pv 02Aug2007               
 POTCAR:    PAW_PBE Ni_pv 06Sep2000               
 POTCAR:    PAW_PBE O 08Apr2002                   

 ----------------------------------------------------------------------------- 
|                                                                             |
|           W    W    AA    RRRRR   N    N  II  N    N   GGGG   !!!           |
|           W    W   A  A   R    R  NN   N  II  NN   N  G    G  !!!           |
|           W    W  A    A  R    R  N N  N  II  N N  N  G       !!!           |
|           W WW W  AAAAAA  RRRRR   N  N N  II  N  N N  G  GGG   !            |
|           WW  WW  A    A  R   R   N   NN  II  N   NN  G    G                |
|           W    W  A    A  R    R  N    N  II  N    N   GGGG   !!!           |
|                                                                             |
|      For optimal performance we recommend to set                            |
|        NCORE= 4 - approx SQRT( number of cores)                             |
|      NCORE specifies how many cores store one orbital (NPAR=cpu/NCORE).     |
|      This setting can  greatly improve the performance of VASP for DFT.     |
|      The default, NPAR=number of cores might be grossly inefficient         |
|      on modern multi-core architectures or massively parallel machines.     |
|      Do your own testing !!!!                                               |
|      Unfortunately you need to use the default for GW and RPA calculations. |
|      (for HF NCORE is supported but not extensively tested yet)             |
|                                                                             |
 ----------------------------------------------------------------------------- 

 POTCAR:    PAW_PBE Li_sv 10Sep2004               
   VRHFIN =Li: 1s2s2p                                                           
   LEXCH  = PE                                                                  
   EATOM  =   202.7858 eV,   14.9043 Ry                                         
                                                                                
   TITEL  = PAW_PBE Li_sv 10Sep2004                                             
   LULTRA =        F    use ultrasoft PP ?                                      
   IUNSCR =        0    unscreen: 0-lin 1-nonlin 2-no                           
   RPACOR =    0.000    partial core radius                                     
   POMASS =    7.010; ZVAL   =    3.000    mass and valenz                      
   RCORE  =    1.700    outmost cutoff radius                                   
   RWIGS  =    2.050; RWIGS  =    1.085    wigner-seitz radius (au A)           
   ENMAX  =  499.034; ENMIN  =  374.276 eV                                      
   ICORE  =        2    local potential                                         
   LCOR   =        T    correct aug charges                                     
   LPAW   =        T    paw PP                                                  
   EAUG   =  628.945                                                            
   RMAX   =    1.732    core radius for proj-oper                               
   RAUG   =    1.300    factor for augmentation sphere                          
   RDEP   =    1.728    radius for radial grids                                 
   RDEPT  =    1.329    core radius for aug-charge                              
                                                                                
   Atomic configuration                                                         
    4 entries                                                                   
     n  l   j            E        occ.                                          
     1  0  0.50       -51.8549   2.0000                                         
     2  0  0.50        -2.8742   1.0000                                         
     2  1  0.50        -1.3606   0.0000                                         
     3  2  1.50        -1.3606   0.0000                                         
   Description                                                                  
     l       E           TYP  RCUT    TYP  RCUT                                 
     0    -51.8548813     23  1.400                                             
     0     -2.8742052     23  1.700                                             
     1     -1.3605826     23  1.400                                             
     2     -1.3605826     23  1.400                                             
  local pseudopotential read in
  atomic valenz-charges read in
  non local Contribution for L=           0  read in
    real space projection operators read in
  non local Contribution for L=           0  read in
    real space projection operators read in
  non local Contribution for L=           1  read in
    real space projection operators read in
    PAW grid and wavefunctions read in
 
   number of l-projection  operators is LMAX  =           3
   number of lm-projection operators is LMMAX =           5
 
 POTCAR:    PAW_PBE Mn_pv 02Aug2007               
   VRHFIN =Mn: 3p4s3d                                                           
   LEXCH  = PE                                                                  
   EATOM  =  2025.2664 eV,  148.8529 Ry                                         
                                                                                
   TITEL  = PAW_PBE Mn_pv 02Aug2007                                             
   LULTRA =        F    use ultrasoft PP ?                                      
   IUNSCR =        1    unscreen: 0-lin 1-nonlin 2-no                           
   RPACOR =    2.080    partial core radius                                     
   POMASS =   54.938; ZVAL   =   13.000    mass and valenz                      
   RCORE  =    2.300    outmost cutoff radius                                   
   RWIGS  =    2.500; RWIGS  =    1.323    wigner-seitz radius (au A)           
   ENMAX  =  269.864; ENMIN  =  202.398 eV                                      
   ICORE  =        3    local potential                                         
   LCOR   =        T    correct aug charges                                     
   LPAW   =        T    paw PP                                                  
   EAUG   =  569.085                                                            
   DEXC   =    0.000                                                            
   RMAX   =    2.343    core radius for proj-oper                               
   RAUG   =    1.300    factor for augmentation sphere                          
   RDEP   =    2.338    radius for radial grids                                 
   RDEPT  =    1.798    core radius for aug-charge                              
                                                                                
   Atomic configuration                                                         
    8 entries                                                                   
     n  l   j            E        occ.                                          
     1  0  0.50     -6424.8287   2.0000                                         
     2  0  0.50      -739.1154   2.0000                                         
     2  1  1.50      -625.3949   6.0000                                         
     3  0  0.50       -81.6100   2.0000                                         
     3  1  1.50       -50.4667   6.0000                                         
     3  2  2.50        -3.3745   6.0000                                         
     4  0  0.50        -4.1331   1.0000                                         
     4  3  2.50        -1.3606   0.0000                                         
   Description                                                                  
     l       E           TYP  RCUT    TYP  RCUT                                 
     1    -50.4666628     23  2.000                                             
     1     -1.3605826     23  2.000                                             
     2     -3.3744729     23  2.300                                             
     2     -4.7350555     23  2.300                                             
     0     -4.1331431     23  2.300                                             
     0      7.6656591     23  2.300                                             
     3      9.5240782     23  2.300                                             
  local pseudopotential read in
  partial core-charges read in
  partial kinetic energy density read in
  atomic valenz-charges read in
  non local Contribution for L=           1  read in
    real space projection operators read in
  non local Contribution for L=           1  read in
    real space projection operators read in
  non local Contribution for L=           2  read in
    real space projection operators read in
  non local Contribution for L=           2  read in
    real space projection operators read in
  non local Contribution for L=           0  read in
    real space projection operators read in
  non local Contribution for L=           0  read in
    real space projection operators read in
    PAW grid and wavefunctions read in
 
   number of l-projection  operators is LMAX  =           6
   number of lm-projection operators is LMMAX =          18
 
 POTCAR:    PAW_PBE Ni_pv 06Sep2000               
   VRHFIN =Ni:                                                                  
   LEXCH  = PE                                                                  
   EATOM  =  3501.1230 eV,  257.3253 Ry                                         
                                                                                
   TITEL  = PAW_PBE Ni_pv 06Sep2000                                             
   LULTRA =        F    use ultrasoft PP ?                                      
   IUNSCR =        1    unscreen: 0-lin 1-nonlin 2-no                           
   RPACOR =    1.500    partial core radius                                     
   POMASS =   58.690; ZVAL   =   16.000    mass and valenz                      
   RCORE  =    2.000    outmost cutoff radius                                   
   RWIGS  =    2.000; RWIGS  =    1.058    wigner-seitz radius (au A)           
   ENMAX  =  367.986; ENMIN  =  275.989 eV                                      
   RCLOC  =    1.301    cutoff for local pot                                    
   LCOR   =        T    correct aug charges                                     
   LPAW   =        T    paw PP                                                  
   EAUG   =  703.443                                                            
   DEXC   =    0.000                                                            
   RMAX   =    2.041    core radius for proj-oper                               
   RAUG   =    1.300    factor for augmentation sphere                          
   RDEP   =    2.103    radius for radial grids                                 
   RDEPT  =    1.618    core radius for aug-charge                              
                                                                                
   Atomic configuration                                                         
    8 entries                                                                   
     n  l   j            E        occ.                                          
     1  0  0.50     -8206.4253   2.0000                                         
     2  0  0.50      -976.1748   2.0000                                         
     2  1  1.50      -839.0571   6.0000                                         
     3  0  0.50      -105.9991   2.0000                                         
     3  1  1.50       -66.4603   6.0000                                         
     3  2  2.50        -4.6458   9.0000                                         
     4  0  0.50        -4.4926   1.0000                                         
     4  3  2.50        -1.3606   0.0000                                         
   Description                                                                  
     l       E           TYP  RCUT    TYP  RCUT                                 
     1    -66.4602962     23  1.700                                             
     1     -1.3605826     23  1.700                                             
     2     -4.6457867     23  2.000                                             
     2     -6.0063693     23  2.000                                             
     0     -4.4925576     23  1.900                                             
     0     16.3626226     23  1.900                                             
  local pseudopotential read in
  partial core-charges read in
  partial kinetic energy density read in
  atomic valenz-charges read in
  non local Contribution for L=           1  read in
    real space projection operators read in
  non local Contribution for L=           1  read in
    real space projection operators read in
  non local Contribution for L=           2  read in
    real space projection operators read in
  non local Contribution for L=           2  read in
    real space projection operators read in
  non local Contribution for L=           0  read in
    real space projection operators read in
  non local Contribution for L=           0  read in
    real space projection operators read in
    PAW grid and wavefunctions read in
 
   number of l-projection  operators is LMAX  =           6
   number of lm-projection operators is LMMAX =          18
 
 POTCAR:    PAW_PBE O 08Apr2002                   
   VRHFIN =O: s2p4                                                              
   LEXCH  = PE                                                                  
   EATOM  =   432.3788 eV,   31.7789 Ry                                         
                                                                                
   TITEL  = PAW_PBE O 08Apr2002                                                 
   LULTRA =        F    use ultrasoft PP ?                                      
   IUNSCR =        1    unscreen: 0-lin 1-nonlin 2-no                           
   RPACOR =    1.200    partial core radius                                     
   POMASS =   16.000; ZVAL   =    6.000    mass and valenz                      
   RCORE  =    1.520    outmost cutoff radius                                   
   RWIGS  =    1.550; RWIGS  =    0.820    wigner-seitz radius (au A)           
   ENMAX  =  400.000; ENMIN  =  300.000 eV                                      
   ICORE  =        2    local potential                                         
   LCOR   =        T    correct aug charges                                     
   LPAW   =        T    paw PP                                                  
   EAUG   =  605.392                                                            
   DEXC   =    0.000                                                            
   RMAX   =    1.553    core radius for proj-oper                               
   RAUG   =    1.300    factor for augmentation sphere                          
   RDEP   =    1.550    radius for radial grids                                 
   RDEPT  =    1.329    core radius for aug-charge                              
                                                                                
   Atomic configuration                                                         
    4 entries                                                                   
     n  l   j            E        occ.                                          
     1  0  0.50      -514.6923   2.0000                                         
     2  0  0.50       -23.9615   2.0000                                         
     2  1  0.50        -9.0305   4.0000                                         
     3  2  1.50        -9.5241   0.0000                                         
   Description                                                                  
     l       E           TYP  RCUT    TYP  RCUT                                 
     0    -23.9615318     23  1.200                                             
     0     -9.5240782     23  1.200                                             
     1     -9.0304911     23  1.520                                             
     1      8.1634956     23  1.520                                             
     2     -9.5240782      7  1.500                                             
  local pseudopotential read in
  partial core-charges read in
  partial kinetic energy density read in
  kinetic energy density of atom read in
  atomic valenz-charges read in
  non local Contribution for L=           0  read in
    real space projection operators read in
  non local Contribution for L=           0  read in
    real space projection operators read in
  non local Contribution for L=           1  read in
    real space projection operators read in
  non local Contribution for L=           1  read in
    real space projection operators read in
    PAW grid and wavefunctions read in
 
   number of l-projection  operators is LMAX  =           4
   number of lm-projection operators is LMMAX =           8
 

 ----------------------------------------------------------------------------- 
|                                                                             |
|  ADVICE TO THIS USER RUNNING 'VASP/VAMP'   (HEAR YOUR MASTER'S VOICE ...):  |
|                                                                             |
|      You have a (more or less) 'small supercell' and for smaller cells      |
|      it is recommended  to use the reciprocal-space projection scheme!      |
|      The real space optimization is not  efficient for small cells and it   |
|      is also less accurate ...                                              |
|      Therefore set LREAL=.FALSE. in the  INCAR file                         |
|                                                                             |
 ----------------------------------------------------------------------------- 

 Optimization of the real space projectors (new method)

 maximal supplied QI-value         = 22.11
 optimisation between [QCUT,QGAM] = [ 11.50, 23.22] = [ 37.02,150.92] Ry 
 Optimized for a Real-space Cutoff    1.08 Angstroem

   l    n(q)    QCUT    max X(q) W(low)/X(q) W(high)/X(q)  e(spline) 
   0      7    11.497    10.506    0.36E-04    0.62E-04    0.14E-07
   0      7    11.497     8.367    0.65E-04    0.14E-03    0.28E-07
   1      7    11.497     8.983    0.21E-03    0.43E-03    0.90E-07
 Optimization of the real space projectors (new method)

 maximal supplied QI-value         = 16.25
 optimisation between [QCUT,QGAM] = [ 11.54, 23.24] = [ 37.28,151.24] Ry 
 Optimized for a Real-space Cutoff    1.45 Angstroem

   l    n(q)    QCUT    max X(q) W(low)/X(q) W(high)/X(q)  e(spline) 
   1     10    11.539     3.658    0.56E-04    0.12E-03    0.13E-06
   1     10    11.539     5.612    0.11E-03    0.23E-03    0.24E-06
   2      9    11.539    55.373    0.45E-04    0.92E-04    0.22E-06
   2      9    11.539    50.863    0.47E-04    0.95E-04    0.22E-06
   0     10    11.539    79.536    0.46E-04    0.27E-04    0.11E-06
   0     10    11.539    38.668    0.38E-04    0.25E-04    0.10E-06
 Optimization of the real space projectors (new method)

 maximal supplied QI-value         = 18.90
 optimisation between [QCUT,QGAM] = [ 11.53, 23.24] = [ 37.21,151.29] Ry 
 Optimized for a Real-space Cutoff    1.36 Angstroem

   l    n(q)    QCUT    max X(q) W(low)/X(q) W(high)/X(q)  e(spline) 
   1      9    11.527     2.836    0.16E-04    0.30E-04    0.95E-07
   1      9    11.527     4.023    0.73E-04    0.81E-04    0.21E-06
   2      9    11.527    73.368    0.15E-03    0.29E-03    0.28E-06
   2      9    11.527    69.010    0.15E-03    0.29E-03    0.29E-06
   0      9    11.527    54.797    0.43E-04    0.28E-04    0.85E-07
   0      9    11.527    24.266    0.33E-04    0.24E-04    0.75E-07
 Optimization of the real space projectors (new method)

 maximal supplied QI-value         = 24.76
 optimisation between [QCUT,QGAM] = [ 11.64, 23.27] = [ 37.91,151.63] Ry 
 Optimized for a Real-space Cutoff    1.14 Angstroem

   l    n(q)    QCUT    max X(q) W(low)/X(q) W(high)/X(q)  e(spline) 
   0      8    11.635    20.381    0.10E-03    0.33E-03    0.24E-06
   0      8    11.635    15.268    0.11E-03    0.35E-03    0.26E-06
   1      7    11.635     5.964    0.24E-03    0.31E-03    0.30E-06
   1      7    11.635     5.382    0.22E-03    0.25E-03    0.26E-06
  PAW_PBE Li_sv 10Sep2004               :
 energy of atom  1       EATOM= -202.7858
 kinetic energy error for atom=    0.0130 (will be added to EATOM!!)
  PAW_PBE Mn_pv 02Aug2007               :
 energy of atom  2       EATOM=-2025.2664
 kinetic energy error for atom=    0.0058 (will be added to EATOM!!)
  PAW_PBE Ni_pv 06Sep2000               :
 energy of atom  3       EATOM=-3501.1230
 kinetic energy error for atom=    0.0575 (will be added to EATOM!!)
  PAW_PBE O 08Apr2002                   :
 energy of atom  4       EATOM= -432.3788
 kinetic energy error for atom=    0.0208 (will be added to EATOM!!)
 
 
 POSCAR: Li2 Mn1 Ni1 O4                          
  positions in direct lattice
  No initial velocities read in
 exchange correlation table for  LEXCH =        8
   RHO(1)=    0.500       N(1)  =     2000
   RHO(2)=  100.500       N(2)  =     4000
 


--------------------------------------------------------------------------------------------------------


 ion  position               nearest neighbor table
   1  0.000  0.000  0.000-   6 2.07   8 2.07   6 2.07   8 2.07   7 2.08   5 2.08
   2  0.500  0.500  0.000-   5 2.07   7 2.07   5 2.07   7 2.07   6 2.08   8 2.08
   3  0.000  0.500  0.500-   6 2.07   8 2.07   6 2.07   8 2.07   7 2.08   5 2.08
   4  0.500  0.000  0.500-   5 2.07   7 2.07   5 2.07   7 2.07   6 2.08   8 2.08
   5  0.000  0.750  0.750-   2 2.07   4 2.07   2 2.07   4 2.07   3 2.08   1 2.08
   6  0.500  0.750  0.250-   1 2.07   3 2.07   1 2.07   3 2.07   2 2.08   4 2.08
   7  0.000  0.250  0.250-   2 2.07   4 2.07   2 2.07   4 2.07   3 2.08   1 2.08
   8  0.500  0.250  0.750-   1 2.07   3 2.07   1 2.07   3 2.07   2 2.08   4 2.08
 

IMPORTANT INFORMATION: All symmetrisations will be switched off!
NOSYMM: (Re-)initialisation of all symmetry stuff for point group C_1.

 
 
 KPOINTS: pymatgen generated KPOINTS with grid den

Automatic generation of k-mesh.
Space group operators:
 irot       det(A)        alpha          n_x          n_y          n_z        tau_x        tau_y        tau_z
    1     1.000000     0.000001     1.000000     0.000000     0.000000     0.000000     0.000000     0.000000
 
 Subroutine IBZKPT returns following result:
 ===========================================
 
 Found    144 irreducible k-points:
 
 Following reciprocal coordinates:
            Coordinates               Weight
  0.062500  0.083333  0.083333      2.000000
  0.187500  0.083333  0.083333      2.000000
  0.312500  0.083333  0.083333      2.000000
  0.437500  0.083333  0.083333      2.000000
 -0.437500  0.083333  0.083333      2.000000
 -0.312500  0.083333  0.083333      2.000000
 -0.187500  0.083333  0.083333      2.000000
 -0.062500  0.083333  0.083333      2.000000
  0.062500  0.250000  0.083333      2.000000
  0.187500  0.250000  0.083333      2.000000
  0.312500  0.250000  0.083333      2.000000
  0.437500  0.250000  0.083333      2.000000
 -0.437500  0.250000  0.083333      2.000000
 -0.312500  0.250000  0.083333      2.000000
 -0.187500  0.250000  0.083333      2.000000
 -0.062500  0.250000  0.083333      2.000000
  0.062500  0.416667  0.083333      2.000000
  0.187500  0.416667  0.083333      2.000000
  0.312500  0.416667  0.083333      2.000000
  0.437500  0.416667  0.083333      2.000000
 -0.437500  0.416667  0.083333      2.000000
 -0.312500  0.416667  0.083333      2.000000
 -0.187500  0.416667  0.083333      2.000000
 -0.062500  0.416667  0.083333      2.000000
  0.062500 -0.416667  0.083333      2.000000
  0.187500 -0.416667  0.083333      2.000000
  0.312500 -0.416667  0.083333      2.000000
  0.437500 -0.416667  0.083333      2.000000
 -0.437500 -0.416667  0.083333      2.000000
 -0.312500 -0.416667  0.083333      2.000000
 -0.187500 -0.416667  0.083333      2.000000
 -0.062500 -0.416667  0.083333      2.000000
  0.062500 -0.250000  0.083333      2.000000
  0.187500 -0.250000  0.083333      2.000000
  0.312500 -0.250000  0.083333      2.000000
  0.437500 -0.250000  0.083333      2.000000
 -0.437500 -0.250000  0.083333      2.000000
 -0.312500 -0.250000  0.083333      2.000000
 -0.187500 -0.250000  0.083333      2.000000
 -0.062500 -0.250000  0.083333      2.000000
  0.062500 -0.083333  0.083333      2.000000
  0.187500 -0.083333  0.083333      2.000000
  0.312500 -0.083333  0.083333      2.000000
  0.437500 -0.083333  0.083333      2.000000
 -0.437500 -0.083333  0.083333      2.000000
 -0.312500 -0.083333  0.083333      2.000000
 -0.187500 -0.083333  0.083333      2.000000
 -0.062500 -0.083333  0.083333      2.000000
  0.062500  0.083333  0.250000      2.000000
  0.187500  0.083333  0.250000      2.000000
  0.312500  0.083333  0.250000      2.000000
  0.437500  0.083333  0.250000      2.000000
 -0.437500  0.083333  0.250000      2.000000
 -0.312500  0.083333  0.250000      2.000000
 -0.187500  0.083333  0.250000      2.000000
 -0.062500  0.083333  0.250000      2.000000
  0.062500  0.250000  0.250000      2.000000
  0.187500  0.250000  0.250000      2.000000
  0.312500  0.250000  0.250000      2.000000
  0.437500  0.250000  0.250000      2.000000
 -0.437500  0.250000  0.250000      2.000000
 -0.312500  0.250000  0.250000      2.000000
 -0.187500  0.250000  0.250000      2.000000
 -0.062500  0.250000  0.250000      2.000000
  0.062500  0.416667  0.250000      2.000000
  0.187500  0.416667  0.250000      2.000000
  0.312500  0.416667  0.250000      2.000000
  0.437500  0.416667  0.250000      2.000000
 -0.437500  0.416667  0.250000      2.000000
 -0.312500  0.416667  0.250000      2.000000
 -0.187500  0.416667  0.250000      2.000000
 -0.062500  0.416667  0.250000      2.000000
  0.062500 -0.416667  0.250000      2.000000
  0.187500 -0.416667  0.250000      2.000000
  0.312500 -0.416667  0.250000      2.000000
  0.437500 -0.416667  0.250000      2.000000
 -0.437500 -0.416667  0.250000      2.000000
 -0.312500 -0.416667  0.250000      2.000000
 -0.187500 -0.416667  0.250000      2.000000
 -0.062500 -0.416667  0.250000      2.000000
  0.062500 -0.250000  0.250000      2.000000
  0.187500 -0.250000  0.250000      2.000000
  0.312500 -0.250000  0.250000      2.000000
  0.437500 -0.250000  0.250000      2.000000
 -0.437500 -0.250000  0.250000      2.000000
 -0.312500 -0.250000  0.250000      2.000000
 -0.187500 -0.250000  0.250000      2.000000
 -0.062500 -0.250000  0.250000      2.000000
  0.062500 -0.083333  0.250000      2.000000
  0.187500 -0.083333  0.250000      2.000000
  0.312500 -0.083333  0.250000      2.000000
  0.437500 -0.083333  0.250000      2.000000
 -0.437500 -0.083333  0.250000      2.000000
 -0.312500 -0.083333  0.250000      2.000000
 -0.187500 -0.083333  0.250000      2.000000
 -0.062500 -0.083333  0.250000      2.000000
  0.062500  0.083333  0.416667      2.000000
  0.187500  0.083333  0.416667      2.000000
  0.312500  0.083333  0.416667      2.000000
  0.437500  0.083333  0.416667      2.000000
 -0.437500  0.083333  0.416667      2.000000
 -0.312500  0.083333  0.416667      2.000000
 -0.187500  0.083333  0.416667      2.000000
 -0.062500  0.083333  0.416667      2.000000
  0.062500  0.250000  0.416667      2.000000
  0.187500  0.250000  0.416667      2.000000
  0.312500  0.250000  0.416667      2.000000
  0.437500  0.250000  0.416667      2.000000
 -0.437500  0.250000  0.416667      2.000000
 -0.312500  0.250000  0.416667      2.000000
 -0.187500  0.250000  0.416667      2.000000
 -0.062500  0.250000  0.416667      2.000000
  0.062500  0.416667  0.416667      2.000000
  0.187500  0.416667  0.416667      2.000000
  0.312500  0.416667  0.416667      2.000000
  0.437500  0.416667  0.416667      2.000000
 -0.437500  0.416667  0.416667      2.000000
 -0.312500  0.416667  0.416667      2.000000
 -0.187500  0.416667  0.416667      2.000000
 -0.062500  0.416667  0.416667      2.000000
  0.062500 -0.416667  0.416667      2.000000
  0.187500 -0.416667  0.416667      2.000000
  0.312500 -0.416667  0.416667      2.000000
  0.437500 -0.416667  0.416667      2.000000
 -0.437500 -0.416667  0.416667      2.000000
 -0.312500 -0.416667  0.416667      2.000000
 -0.187500 -0.416667  0.416667      2.000000
 -0.062500 -0.416667  0.416667      2.000000
  0.062500 -0.250000  0.416667      2.000000
  0.187500 -0.250000  0.416667      2.000000
  0.312500 -0.250000  0.416667      2.000000
  0.437500 -0.250000  0.416667      2.000000
 -0.437500 -0.250000  0.416667      2.000000
 -0.312500 -0.250000  0.416667      2.000000
 -0.187500 -0.250000  0.416667      2.000000
 -0.062500 -0.250000  0.416667      2.000000
  0.062500 -0.083333  0.416667      2.000000
  0.187500 -0.083333  0.416667      2.000000
  0.312500 -0.083333  0.416667      2.000000
  0.437500 -0.083333  0.416667      2.000000
 -0.437500 -0.083333  0.416667      2.000000
 -0.312500 -0.083333  0.416667      2.000000
 -0.187500 -0.083333  0.416667      2.000000
 -0.062500 -0.083333  0.416667      2.000000
 
 Following cartesian coordinates:
            Coordinates               Weight
  0.021440  0.016281  0.011623      2.000000
  0.064319  0.016281  0.011623      2.000000
  0.107199  0.016281  0.011623      2.000000
  0.150078  0.016281  0.011623      2.000000
 -0.150078  0.016281  0.011623      2.000000
 -0.107199  0.016281  0.011623      2.000000
 -0.064319  0.016281  0.011623      2.000000
 -0.021440  0.016281  0.011623      2.000000
  0.021440  0.048843 -0.000020      2.000000
  0.064319  0.048843 -0.000020      2.000000
  0.107199  0.048843 -0.000020      2.000000
  0.150078  0.048843 -0.000020      2.000000
 -0.150078  0.048843 -0.000020      2.000000
 -0.107199  0.048843 -0.000020      2.000000
 -0.064319  0.048843 -0.000020      2.000000
 -0.021440  0.048843 -0.000020      2.000000
  0.021440  0.081404 -0.011664      2.000000
  0.064319  0.081404 -0.011664      2.000000
  0.107199  0.081404 -0.011664      2.000000
  0.150078  0.081404 -0.011664      2.000000
 -0.150078  0.081404 -0.011664      2.000000
 -0.107199  0.081404 -0.011664      2.000000
 -0.064319  0.081404 -0.011664      2.000000
 -0.021440  0.081404 -0.011664      2.000000
  0.021440 -0.081404  0.046555      2.000000
  0.064319 -0.081404  0.046555      2.000000
  0.107199 -0.081404  0.046555      2.000000
  0.150078 -0.081404  0.046555      2.000000
 -0.150078 -0.081404  0.046555      2.000000
 -0.107199 -0.081404  0.046555      2.000000
 -0.064319 -0.081404  0.046555      2.000000
 -0.021440 -0.081404  0.046555      2.000000
  0.021440 -0.048843  0.034911      2.000000
  0.064319 -0.048843  0.034911      2.000000
  0.107199 -0.048843  0.034911      2.000000
  0.150078 -0.048843  0.034911      2.000000
 -0.150078 -0.048843  0.034911      2.000000
 -0.107199 -0.048843  0.034911      2.000000
 -0.064319 -0.048843  0.034911      2.000000
 -0.021440 -0.048843  0.034911      2.000000
  0.021440 -0.016281  0.023267      2.000000
  0.064319 -0.016281  0.023267      2.000000
  0.107199 -0.016281  0.023267      2.000000
  0.150078 -0.016281  0.023267      2.000000
 -0.150078 -0.016281  0.023267      2.000000
 -0.107199 -0.016281  0.023267      2.000000
 -0.064319 -0.016281  0.023267      2.000000
 -0.021440 -0.016281  0.023267      2.000000
  0.021440  0.016281  0.046514      2.000000
  0.064319  0.016281  0.046514      2.000000
  0.107199  0.016281  0.046514      2.000000
  0.150078  0.016281  0.046514      2.000000
 -0.150078  0.016281  0.046514      2.000000
 -0.107199  0.016281  0.046514      2.000000
 -0.064319  0.016281  0.046514      2.000000
 -0.021440  0.016281  0.046514      2.000000
  0.021440  0.048843  0.034870      2.000000
  0.064319  0.048843  0.034870      2.000000
  0.107199  0.048843  0.034870      2.000000
  0.150078  0.048843  0.034870      2.000000
 -0.150078  0.048843  0.034870      2.000000
 -0.107199  0.048843  0.034870      2.000000
 -0.064319  0.048843  0.034870      2.000000
 -0.021440  0.048843  0.034870      2.000000
  0.021440  0.081404  0.023226      2.000000
  0.064319  0.081404  0.023226      2.000000
  0.107199  0.081404  0.023226      2.000000
  0.150078  0.081404  0.023226      2.000000
 -0.150078  0.081404  0.023226      2.000000
 -0.107199  0.081404  0.023226      2.000000
 -0.064319  0.081404  0.023226      2.000000
 -0.021440  0.081404  0.023226      2.000000
  0.021440 -0.081404  0.081446      2.000000
  0.064319 -0.081404  0.081446      2.000000
  0.107199 -0.081404  0.081446      2.000000
  0.150078 -0.081404  0.081446      2.000000
 -0.150078 -0.081404  0.081446      2.000000
 -0.107199 -0.081404  0.081446      2.000000
 -0.064319 -0.081404  0.081446      2.000000
 -0.021440 -0.081404  0.081446      2.000000
  0.021440 -0.048843  0.069802      2.000000
  0.064319 -0.048843  0.069802      2.000000
  0.107199 -0.048843  0.069802      2.000000
  0.150078 -0.048843  0.069802      2.000000
 -0.150078 -0.048843  0.069802      2.000000
 -0.107199 -0.048843  0.069802      2.000000
 -0.064319 -0.048843  0.069802      2.000000
 -0.021440 -0.048843  0.069802      2.000000
  0.021440 -0.016281  0.058158      2.000000
  0.064319 -0.016281  0.058158      2.000000
  0.107199 -0.016281  0.058158      2.000000
  0.150078 -0.016281  0.058158      2.000000
 -0.150078 -0.016281  0.058158      2.000000
 -0.107199 -0.016281  0.058158      2.000000
 -0.064319 -0.016281  0.058158      2.000000
 -0.021440 -0.016281  0.058158      2.000000
  0.021440  0.016281  0.081405      2.000000
  0.064319  0.016281  0.081405      2.000000
  0.107199  0.016281  0.081405      2.000000
  0.150078  0.016281  0.081405      2.000000
 -0.150078  0.016281  0.081405      2.000000
 -0.107199  0.016281  0.081405      2.000000
 -0.064319  0.016281  0.081405      2.000000
 -0.021440  0.016281  0.081405      2.000000
  0.021440  0.048843  0.069761      2.000000
  0.064319  0.048843  0.069761      2.000000
  0.107199  0.048843  0.069761      2.000000
  0.150078  0.048843  0.069761      2.000000
 -0.150078  0.048843  0.069761      2.000000
 -0.107199  0.048843  0.069761      2.000000
 -0.064319  0.048843  0.069761      2.000000
 -0.021440  0.048843  0.069761      2.000000
  0.021440  0.081404  0.058117      2.000000
  0.064319  0.081404  0.058117      2.000000
  0.107199  0.081404  0.058117      2.000000
  0.150078  0.081404  0.058117      2.000000
 -0.150078  0.081404  0.058117      2.000000
 -0.107199  0.081404  0.058117      2.000000
 -0.064319  0.081404  0.058117      2.000000
 -0.021440  0.081404  0.058117      2.000000
  0.021440 -0.081404  0.116336      2.000000
  0.064319 -0.081404  0.116336      2.000000
  0.107199 -0.081404  0.116336      2.000000
  0.150078 -0.081404  0.116336      2.000000
 -0.150078 -0.081404  0.116336      2.000000
 -0.107199 -0.081404  0.116336      2.000000
 -0.064319 -0.081404  0.116336      2.000000
 -0.021440 -0.081404  0.116336      2.000000
  0.021440 -0.048843  0.104692      2.000000
  0.064319 -0.048843  0.104692      2.000000
  0.107199 -0.048843  0.104692      2.000000
  0.150078 -0.048843  0.104692      2.000000
 -0.150078 -0.048843  0.104692      2.000000
 -0.107199 -0.048843  0.104692      2.000000
 -0.064319 -0.048843  0.104692      2.000000
 -0.021440 -0.048843  0.104692      2.000000
  0.021440 -0.016281  0.093049      2.000000
  0.064319 -0.016281  0.093049      2.000000
  0.107199 -0.016281  0.093049      2.000000
  0.150078 -0.016281  0.093049      2.000000
 -0.150078 -0.016281  0.093049      2.000000
 -0.107199 -0.016281  0.093049      2.000000
 -0.064319 -0.016281  0.093049      2.000000
 -0.021440 -0.016281  0.093049      2.000000
 
 TETIRR: Found    864 inequivalent tetrahedra from     1728


--------------------------------------------------------------------------------------------------------




 Dimension of arrays:
   k-points           NKPTS =    144   k-points in BZ     NKDIM =    144   number of bands    NBANDS=     35
   number of dos      NEDOS =    301   number of ions     NIONS =      8
   non local maximal  LDIM  =      6   non local SUM 2l+1 LMDIM =     18
   total plane-waves  NPLWV =  38400
   max r-space proj   IRMAX =   6869   max aug-charges    IRDMAX=  16545
   dimension x,y,z NGX =    24 NGY =   40 NGZ =   40
   dimension x,y,z NGXF=    48 NGYF=   80 NGZF=   80
   support grid    NGXF=    48 NGYF=   80 NGZF=   80
   ions per type =               2   1   1   4
 NGX,Y,Z   is equivalent  to a cutoff of  13.69, 12.99, 13.11 a.u.
 NGXF,Y,Z  is equivalent  to a cutoff of  27.37, 25.98, 26.22 a.u.


 I would recommend the setting:
   dimension x,y,z NGX =    22 NGY =   38 NGZ =   38
 SYSTEM =  unknown system                          
 POSCAR =  Li2 Mn1 Ni1 O4                          

 Startparameter for this run:
   NWRITE =      2    write-flag & timer
   PREC   = accura    normal or accurate (medium, high low for compatibility)
   ISTART =      0    job   : 0-new  1-cont  2-samecut
   ICHARG =      1    charge: 1-file 2-atom 10-const
   ISPIN  =      2    spin polarized calculation?
   LNONCOLLINEAR =      F non collinear calculations
   LSORBIT =      F    spin-orbit coupling
   INIWAV =      1    electr: 0-lowe 1-rand  2-diag
   LASPH  =      F    aspherical Exc in radial PAW
   METAGGA=      F    non-selfconsistent MetaGGA calc.

 Electronic Relaxation 1
   ENCUT  =  520.0 eV  38.22 Ry    6.18 a.u.   5.42  9.52  9.43*2*pi/ulx,y,z
   ENINI  =  520.0     initial cutoff
   ENAUG  =  703.4 eV  augmentation charge cutoff
   NELM   =    100;   NELMIN=  6; NELMDL= -5     # of ELM steps 
   EDIFF  = 0.4E-03   stopping-criterion for ELM
   LREAL  =      T    real-space projection
   NLSPLINE    = F    spline interpolate recip. space projectors
   LCOMPAT=      F    compatible to vasp.4.4
   GGA_COMPAT  = T    GGA compatible to vasp.4.4-vasp.4.6
   LMAXPAW     = -100 max onsite density
   LMAXMIX     =    4 max onsite mixed and CHGCAR
   VOSKOWN=      0    Vosko Wilk Nusair interpolation
   ROPT   =   -0.00025  -0.00025  -0.00025  -0.00025
 Ionic relaxation
   EDIFFG = 0.4E-02   stopping-criterion for IOM
   NSW    =    199    number of steps for IOM
   NBLOCK =      1;   KBLOCK =    199    inner block; outer block 
   IBRION =      2    ionic relax: 0-MD 1-quasi-New 2-CG
   NFREE  =      1    steps in history (QN), initial steepest desc. (CG)
   ISIF   =      3    stress and relaxation
   IWAVPR =     11    prediction:  0-non 1-charg 2-wave 3-comb
   ISYM   =      0    0-nonsym 1-usesym 2-fastsym
   LCORR  =      T    Harris-Foulkes like correction to forces

   POTIM  = 0.5000    time-step for ionic-motion
   TEIN   =    0.0    initial temperature
   TEBEG  =    0.0;   TEEND  =   0.0 temperature during run
   SMASS  =  -3.00    Nose mass-parameter (am)
   estimated Nose-frequenzy (Omega)   =  0.10E-29 period in steps =****** mass=  -0.194E-27a.u.
   SCALEE = 1.0000    scale energy and forces
   NPACO  =    256;   APACO  = 16.0  distance and # of slots for P.C.
   PSTRESS=    0.0 pullay stress

  Mass of Ions in am
   POMASS =   7.01 54.94 58.69 16.00
  Ionic Valenz
   ZVAL   =   3.00 13.00 16.00  6.00
  Atomic Wigner-Seitz radii
   RWIGS  =  -1.00 -1.00 -1.00 -1.00
  virtual crystal weights 
   VCA    =   1.00  1.00  1.00  1.00
   NELECT =      59.0000    total number of electrons
   NUPDOWN=      -1.0000    fix difference up-down

 DOS related values:
   EMIN   =  10.00;   EMAX   =-10.00  energy-range for DOS
   EFERMI =   0.00
   ISMEAR =    -5;   SIGMA  =   0.05  broadening in eV -4-tet -1-fermi 0-gaus

 Electronic relaxation 2 (details)
   IALGO  =     68    algorithm
   LDIAG  =      T    sub-space diagonalisation (order eigenvalues)
   LSUBROT=      F    optimize rotation matrix (better conditioning)
   TURBO    =      0    0=normal 1=particle mesh
   IRESTART =      0    0=no restart 2=restart with 2 vectors
   NREBOOT  =      0    no. of reboots
   NMIN     =      0    reboot dimension
   EREF     =   0.00    reference energy to select bands
   IMIX   =      4    mixing-type and parameters
     AMIX     =   0.40;   BMIX     =  1.00
     AMIX_MAG =   1.60;   BMIX_MAG =  1.00
     AMIN     =   0.10
     WC   =   100.;   INIMIX=   1;  MIXPRE=   1;  MAXMIX= -45

 Intra band minimization:
   WEIMIN = 0.0010     energy-eigenvalue tresh-hold
   EBREAK =  0.29E-05  absolut break condition
   DEPER  =   0.30     relativ break condition  

   TIME   =   0.40     timestep for ELM

  volume/ion in A,a.u.               =       8.91        60.12
  Fermi-wavevector in a.u.,A,eV,Ry     =   1.537133  2.904759 32.147525  2.362776
  Thomas-Fermi vector in A             =   2.643684
 
 Write flags
   LWAVE  =      F    write WAVECAR
   LCHARG =      T    write CHGCAR
   LVTOT  =      F    write LOCPOT, total local potential
   LVHAR  =      F    write LOCPOT, Hartree potential only
   LELF   =      F    write electronic localiz. function (ELF)
   LORBIT =     11    0 simple, 1 ext, 2 COOP (PROOUT)


 Dipole corrections
   LMONO  =      F    monopole corrections only (constant potential shift)
   LDIPOL =      F    correct potential (dipole corrections)
   IDIPOL =      0    1-x, 2-y, 3-z, 4-all directions 
   EPSILON=  1.0000000 bulk dielectric constant

 LDA+U is selected, type is set to LDAUTYPE =  2
   angular momentum for each species LDAUL =     0    2    2    0
   U (eV)           for each species LDAUU =   0.0  3.9  6.2  0.0
   J (eV)           for each species LDAUJ =   0.0  0.0  0.0  0.0
 Exchange correlation treatment:
   GGA     =    --    GGA type
   LEXCH   =     8    internal setting for exchange type
   VOSKOWN=      0    Vosko Wilk Nusair interpolation
   LHFCALC =     F    Hartree Fock is set to
   LHFONE  =     F    Hartree Fock one center treatment
   AEXX    =    0.0000 exact exchange contribution

 Linear response parameters
   LEPSILON=     F    determine dielectric tensor
   LRPA    =     F    only Hartree local field effects (RPA)
   LNABLA  =     F    use nabla operator in PAW spheres
   LVEL    =     F    velocity operator in full k-point grid
   LINTERFAST=   F  fast interpolation
   KINTER  =     0    interpolate to denser k-point grid
   CSHIFT  =0.1000    complex shift for real part using Kramers Kronig
   OMEGAMAX=  -1.0    maximum frequency
   DEG_THRESHOLD= 0.2000000E-02 threshold for treating states as degnerate
   RTIME   =    0.100 relaxation time in fs

 Orbital magnetization related:
   ORBITALMAG=     F  switch on orbital magnetization
   LCHIMAG   =     F  perturbation theory with respect to B field
   DQ        =  0.001000  dq finite difference perturbation B field



--------------------------------------------------------------------------------------------------------


 conjugate gradient relaxation of ions
 charge density and potential will be updated during run
 spin polarized calculation
 RMM-DIIS sequential band-by-band and
  variant of blocked Davidson during initial phase
 perform sub-space diagonalisation
    before iterative eigenvector-optimisation
 modified Broyden-mixing scheme, WC =      100.0
 initial mixing is a Kerker type mixing with AMIX =  0.4000 and BMIX =      1.0000
 Hartree-type preconditioning will be used
 using additional bands            5
 real space projection scheme for non local part
 use partial core corrections
 calculate Harris-corrections to forces 
   (improved forces if not selfconsistent)
 use gradient corrections 
 use of overlap-Matrix (Vanderbilt PP)
 Fermi weights with tetrahedron method with Bloechl corrections


--------------------------------------------------------------------------------------------------------


  energy-cutoff  :      520.00
  volume of cell :       71.28
      direct lattice vectors                 reciprocal lattice vectors
     2.915150000  0.000000000  0.000000000     0.343035521  0.000000000  0.000000000
     0.000000000  5.118490000  0.000000000     0.000000000  0.195370119 -0.069863274
     0.000000000  1.708168000  4.776830000     0.000000000  0.000000000  0.209343854

  length of vectors
     2.915150000  5.118490000  5.073060493     0.343035521  0.207485808  0.209343854


 
 k-points in units of 2pi/SCALE and weight: pymatgen generated KPOINTS with grid den
   0.02143972  0.01628084  0.01162338       0.007
   0.06431916  0.01628084  0.01162338       0.007
   0.10719860  0.01628084  0.01162338       0.007
   0.15007804  0.01628084  0.01162338       0.007
  -0.15007804  0.01628084  0.01162338       0.007
  -0.10719860  0.01628084  0.01162338       0.007
  -0.06431916  0.01628084  0.01162338       0.007
  -0.02143972  0.01628084  0.01162338       0.007
   0.02143972  0.04884253 -0.00002050       0.007
   0.06431916  0.04884253 -0.00002050       0.007
   0.10719860  0.04884253 -0.00002050       0.007
   0.15007804  0.04884253 -0.00002050       0.007
  -0.15007804  0.04884253 -0.00002050       0.007
  -0.10719860  0.04884253 -0.00002050       0.007
  -0.06431916  0.04884253 -0.00002050       0.007
  -0.02143972  0.04884253 -0.00002050       0.007
   0.02143972  0.08140422 -0.01166438       0.007
   0.06431916  0.08140422 -0.01166438       0.007
   0.10719860  0.08140422 -0.01166438       0.007
   0.15007804  0.08140422 -0.01166438       0.007
  -0.15007804  0.08140422 -0.01166438       0.007
  -0.10719860  0.08140422 -0.01166438       0.007
  -0.06431916  0.08140422 -0.01166438       0.007
  -0.02143972  0.08140422 -0.01166438       0.007
   0.02143972 -0.08140422  0.04655502       0.007
   0.06431916 -0.08140422  0.04655502       0.007
   0.10719860 -0.08140422  0.04655502       0.007
   0.15007804 -0.08140422  0.04655502       0.007
  -0.15007804 -0.08140422  0.04655502       0.007
  -0.10719860 -0.08140422  0.04655502       0.007
  -0.06431916 -0.08140422  0.04655502       0.007
  -0.02143972 -0.08140422  0.04655502       0.007
   0.02143972 -0.04884253  0.03491114       0.007
   0.06431916 -0.04884253  0.03491114       0.007
   0.10719860 -0.04884253  0.03491114       0.007
   0.15007804 -0.04884253  0.03491114       0.007
  -0.15007804 -0.04884253  0.03491114       0.007
  -0.10719860 -0.04884253  0.03491114       0.007
  -0.06431916 -0.04884253  0.03491114       0.007
  -0.02143972 -0.04884253  0.03491114       0.007
   0.02143972 -0.01628084  0.02326726       0.007
   0.06431916 -0.01628084  0.02326726       0.007
   0.10719860 -0.01628084  0.02326726       0.007
   0.15007804 -0.01628084  0.02326726       0.007
  -0.15007804 -0.01628084  0.02326726       0.007
  -0.10719860 -0.01628084  0.02326726       0.007
  -0.06431916 -0.01628084  0.02326726       0.007
  -0.02143972 -0.01628084  0.02326726       0.007
   0.02143972  0.01628084  0.04651402       0.007
   0.06431916  0.01628084  0.04651402       0.007
   0.10719860  0.01628084  0.04651402       0.007
   0.15007804  0.01628084  0.04651402       0.007
  -0.15007804  0.01628084  0.04651402       0.007
  -0.10719860  0.01628084  0.04651402       0.007
  -0.06431916  0.01628084  0.04651402       0.007
  -0.02143972  0.01628084  0.04651402       0.007
   0.02143972  0.04884253  0.03487014       0.007
   0.06431916  0.04884253  0.03487014       0.007
   0.10719860  0.04884253  0.03487014       0.007
   0.15007804  0.04884253  0.03487014       0.007
  -0.15007804  0.04884253  0.03487014       0.007
  -0.10719860  0.04884253  0.03487014       0.007
  -0.06431916  0.04884253  0.03487014       0.007
  -0.02143972  0.04884253  0.03487014       0.007
   0.02143972  0.08140422  0.02322627       0.007
   0.06431916  0.08140422  0.02322627       0.007
   0.10719860  0.08140422  0.02322627       0.007
   0.15007804  0.08140422  0.02322627       0.007
  -0.15007804  0.08140422  0.02322627       0.007
  -0.10719860  0.08140422  0.02322627       0.007
  -0.06431916  0.08140422  0.02322627       0.007
  -0.02143972  0.08140422  0.02322627       0.007
   0.02143972 -0.08140422  0.08144566       0.007
   0.06431916 -0.08140422  0.08144566       0.007
   0.10719860 -0.08140422  0.08144566       0.007
   0.15007804 -0.08140422  0.08144566       0.007
  -0.15007804 -0.08140422  0.08144566       0.007
  -0.10719860 -0.08140422  0.08144566       0.007
  -0.06431916 -0.08140422  0.08144566       0.007
  -0.02143972 -0.08140422  0.08144566       0.007
   0.02143972 -0.04884253  0.06980178       0.007
   0.06431916 -0.04884253  0.06980178       0.007
   0.10719860 -0.04884253  0.06980178       0.007
   0.15007804 -0.04884253  0.06980178       0.007
  -0.15007804 -0.04884253  0.06980178       0.007
  -0.10719860 -0.04884253  0.06980178       0.007
  -0.06431916 -0.04884253  0.06980178       0.007
  -0.02143972 -0.04884253  0.06980178       0.007
   0.02143972 -0.01628084  0.05815790       0.007
   0.06431916 -0.01628084  0.05815790       0.007
   0.10719860 -0.01628084  0.05815790       0.007
   0.15007804 -0.01628084  0.05815790       0.007
  -0.15007804 -0.01628084  0.05815790       0.007
  -0.10719860 -0.01628084  0.05815790       0.007
  -0.06431916 -0.01628084  0.05815790       0.007
  -0.02143972 -0.01628084  0.05815790       0.007
   0.02143972  0.01628084  0.08140467       0.007
   0.06431916  0.01628084  0.08140467       0.007
   0.10719860  0.01628084  0.08140467       0.007
   0.15007804  0.01628084  0.08140467       0.007
  -0.15007804  0.01628084  0.08140467       0.007
  -0.10719860  0.01628084  0.08140467       0.007
  -0.06431916  0.01628084  0.08140467       0.007
  -0.02143972  0.01628084  0.08140467       0.007
   0.02143972  0.04884253  0.06976079       0.007
   0.06431916  0.04884253  0.06976079       0.007
   0.10719860  0.04884253  0.06976079       0.007
   0.15007804  0.04884253  0.06976079       0.007
  -0.15007804  0.04884253  0.06976079       0.007
  -0.10719860  0.04884253  0.06976079       0.007
  -0.06431916  0.04884253  0.06976079       0.007
  -0.02143972  0.04884253  0.06976079       0.007
   0.02143972  0.08140422  0.05811691       0.007
   0.06431916  0.08140422  0.05811691       0.007
   0.10719860  0.08140422  0.05811691       0.007
   0.15007804  0.08140422  0.05811691       0.007
  -0.15007804  0.08140422  0.05811691       0.007
  -0.10719860  0.08140422  0.05811691       0.007
  -0.06431916  0.08140422  0.05811691       0.007
  -0.02143972  0.08140422  0.05811691       0.007
   0.02143972 -0.08140422  0.11633630       0.007
   0.06431916 -0.08140422  0.11633630       0.007
   0.10719860 -0.08140422  0.11633630       0.007
   0.15007804 -0.08140422  0.11633630       0.007
  -0.15007804 -0.08140422  0.11633630       0.007
  -0.10719860 -0.08140422  0.11633630       0.007
  -0.06431916 -0.08140422  0.11633630       0.007
  -0.02143972 -0.08140422  0.11633630       0.007
   0.02143972 -0.04884253  0.10469242       0.007
   0.06431916 -0.04884253  0.10469242       0.007
   0.10719860 -0.04884253  0.10469242       0.007
   0.15007804 -0.04884253  0.10469242       0.007
  -0.15007804 -0.04884253  0.10469242       0.007
  -0.10719860 -0.04884253  0.10469242       0.007
  -0.06431916 -0.04884253  0.10469242       0.007
  -0.02143972 -0.04884253  0.10469242       0.007
   0.02143972 -0.01628084  0.09304855       0.007
   0.06431916 -0.01628084  0.09304855       0.007
   0.10719860 -0.01628084  0.09304855       0.007
   0.15007804 -0.01628084  0.09304855       0.007
  -0.15007804 -0.01628084  0.09304855       0.007
  -0.10719860 -0.01628084  0.09304855       0.007
  -0.06431916 -0.01628084  0.09304855       0.007
  -0.02143972 -0.01628084  0.09304855       0.007
 
 k-points in reciprocal lattice and weights: pymatgen generated KPOINTS with grid den
   0.06250000  0.08333333  0.08333333       0.007
   0.18750000  0.08333333  0.08333333       0.007
   0.31250000  0.08333333  0.08333333       0.007
   0.43750000  0.08333333  0.08333333       0.007
  -0.43750000  0.08333333  0.08333333       0.007
  -0.31250000  0.08333333  0.08333333       0.007
  -0.18750000  0.08333333  0.08333333       0.007
  -0.06250000  0.08333333  0.08333333       0.007
   0.06250000  0.25000000  0.08333333       0.007
   0.18750000  0.25000000  0.08333333       0.007
   0.31250000  0.25000000  0.08333333       0.007
   0.43750000  0.25000000  0.08333333       0.007
  -0.43750000  0.25000000  0.08333333       0.007
  -0.31250000  0.25000000  0.08333333       0.007
  -0.18750000  0.25000000  0.08333333       0.007
  -0.06250000  0.25000000  0.08333333       0.007
   0.06250000  0.41666667  0.08333333       0.007
   0.18750000  0.41666667  0.08333333       0.007
   0.31250000  0.41666667  0.08333333       0.007
   0.43750000  0.41666667  0.08333333       0.007
  -0.43750000  0.41666667  0.08333333       0.007
  -0.31250000  0.41666667  0.08333333       0.007
  -0.18750000  0.41666667  0.08333333       0.007
  -0.06250000  0.41666667  0.08333333       0.007
   0.06250000 -0.41666667  0.08333333       0.007
   0.18750000 -0.41666667  0.08333333       0.007
   0.31250000 -0.41666667  0.08333333       0.007
   0.43750000 -0.41666667  0.08333333       0.007
  -0.43750000 -0.41666667  0.08333333       0.007
  -0.31250000 -0.41666667  0.08333333       0.007
  -0.18750000 -0.41666667  0.08333333       0.007
  -0.06250000 -0.41666667  0.08333333       0.007
   0.06250000 -0.25000000  0.08333333       0.007
   0.18750000 -0.25000000  0.08333333       0.007
   0.31250000 -0.25000000  0.08333333       0.007
   0.43750000 -0.25000000  0.08333333       0.007
  -0.43750000 -0.25000000  0.08333333       0.007
  -0.31250000 -0.25000000  0.08333333       0.007
  -0.18750000 -0.25000000  0.08333333       0.007
  -0.06250000 -0.25000000  0.08333333       0.007
   0.06250000 -0.08333333  0.08333333       0.007
   0.18750000 -0.08333333  0.08333333       0.007
   0.31250000 -0.08333333  0.08333333       0.007
   0.43750000 -0.08333333  0.08333333       0.007
  -0.43750000 -0.08333333  0.08333333       0.007
  -0.31250000 -0.08333333  0.08333333       0.007
  -0.18750000 -0.08333333  0.08333333       0.007
  -0.06250000 -0.08333333  0.08333333       0.007
   0.06250000  0.08333333  0.25000000       0.007
   0.18750000  0.08333333  0.25000000       0.007
   0.31250000  0.08333333  0.25000000       0.007
   0.43750000  0.08333333  0.25000000       0.007
  -0.43750000  0.08333333  0.25000000       0.007
  -0.31250000  0.08333333  0.25000000       0.007
  -0.18750000  0.08333333  0.25000000       0.007
  -0.06250000  0.08333333  0.25000000       0.007
   0.06250000  0.25000000  0.25000000       0.007
   0.18750000  0.25000000  0.25000000       0.007
   0.31250000  0.25000000  0.25000000       0.007
   0.43750000  0.25000000  0.25000000       0.007
  -0.43750000  0.25000000  0.25000000       0.007
  -0.31250000  0.25000000  0.25000000       0.007
  -0.18750000  0.25000000  0.25000000       0.007
  -0.06250000  0.25000000  0.25000000       0.007
   0.06250000  0.41666667  0.25000000       0.007
   0.18750000  0.41666667  0.25000000       0.007
   0.31250000  0.41666667  0.25000000       0.007
   0.43750000  0.41666667  0.25000000       0.007
  -0.43750000  0.41666667  0.25000000       0.007
  -0.31250000  0.41666667  0.25000000       0.007
  -0.18750000  0.41666667  0.25000000       0.007
  -0.06250000  0.41666667  0.25000000       0.007
   0.06250000 -0.41666667  0.25000000       0.007
   0.18750000 -0.41666667  0.25000000       0.007
   0.31250000 -0.41666667  0.25000000       0.007
   0.43750000 -0.41666667  0.25000000       0.007
  -0.43750000 -0.41666667  0.25000000       0.007
  -0.31250000 -0.41666667  0.25000000       0.007
  -0.18750000 -0.41666667  0.25000000       0.007
  -0.06250000 -0.41666667  0.25000000       0.007
   0.06250000 -0.25000000  0.25000000       0.007
   0.18750000 -0.25000000  0.25000000       0.007
   0.31250000 -0.25000000  0.25000000       0.007
   0.43750000 -0.25000000  0.25000000       0.007
  -0.43750000 -0.25000000  0.25000000       0.007
  -0.31250000 -0.25000000  0.25000000       0.007
  -0.18750000 -0.25000000  0.25000000       0.007
  -0.06250000 -0.25000000  0.25000000       0.007
   0.06250000 -0.08333333  0.25000000       0.007
   0.18750000 -0.08333333  0.25000000       0.007
   0.31250000 -0.08333333  0.25000000       0.007
   0.43750000 -0.08333333  0.25000000       0.007
  -0.43750000 -0.08333333  0.25000000       0.007
  -0.31250000 -0.08333333  0.25000000       0.007
  -0.18750000 -0.08333333  0.25000000       0.007
  -0.06250000 -0.08333333  0.25000000       0.007
   0.06250000  0.08333333  0.41666667       0.007
   0.18750000  0.08333333  0.41666667       0.007
   0.31250000  0.08333333  0.41666667       0.007
   0.43750000  0.08333333  0.41666667       0.007
  -0.43750000  0.08333333  0.41666667       0.007
  -0.31250000  0.08333333  0.41666667       0.007
  -0.18750000  0.08333333  0.41666667       0.007
  -0.06250000  0.08333333  0.41666667       0.007
   0.06250000  0.25000000  0.41666667       0.007
   0.18750000  0.25000000  0.41666667       0.007
   0.31250000  0.25000000  0.41666667       0.007
   0.43750000  0.25000000  0.41666667       0.007
  -0.43750000  0.25000000  0.41666667       0.007
  -0.31250000  0.25000000  0.41666667       0.007
  -0.18750000  0.25000000  0.41666667       0.007
  -0.06250000  0.25000000  0.41666667       0.007
   0.06250000  0.41666667  0.41666667       0.007
   0.18750000  0.41666667  0.41666667       0.007
   0.31250000  0.41666667  0.41666667       0.007
   0.43750000  0.41666667  0.41666667       0.007
  -0.43750000  0.41666667  0.41666667       0.007
  -0.31250000  0.41666667  0.41666667       0.007
  -0.18750000  0.41666667  0.41666667       0.007
  -0.06250000  0.41666667  0.41666667       0.007
   0.06250000 -0.41666667  0.41666667       0.007
   0.18750000 -0.41666667  0.41666667       0.007
   0.31250000 -0.41666667  0.41666667       0.007
   0.43750000 -0.41666667  0.41666667       0.007
  -0.43750000 -0.41666667  0.41666667       0.007
  -0.31250000 -0.41666667  0.41666667       0.007
  -0.18750000 -0.41666667  0.41666667       0.007
  -0.06250000 -0.41666667  0.41666667       0.007
   0.06250000 -0.25000000  0.41666667       0.007
   0.18750000 -0.25000000  0.41666667       0.007
   0.31250000 -0.25000000  0.41666667       0.007
   0.43750000 -0.25000000  0.41666667       0.007
  -0.43750000 -0.25000000  0.41666667       0.007
  -0.31250000 -0.25000000  0.41666667       0.007
  -0.18750000 -0.25000000  0.41666667       0.007
  -0.06250000 -0.25000000  0.41666667       0.007
   0.06250000 -0.08333333  0.41666667       0.007
   0.18750000 -0.08333333  0.41666667       0.007
   0.31250000 -0.08333333  0.41666667       0.007
   0.43750000 -0.08333333  0.41666667       0.007
  -0.43750000 -0.08333333  0.41666667       0.007
  -0.31250000 -0.08333333  0.41666667       0.007
  -0.18750000 -0.08333333  0.41666667       0.007
  -0.06250000 -0.08333333  0.41666667       0.007
 
 position of ions in fractional coordinates (direct lattice) 
   0.00000000  0.00000000  0.00000000
   0.50000000  0.50000000  0.00000000
   0.00000000  0.50000000  0.50000000
   0.50000000  0.00000000  0.50000000
   0.00000000  0.75000000  0.75000000
   0.50000000  0.75000000  0.25000000
   0.00000000  0.25000000  0.25000000
   0.50000000  0.25000000  0.75000000
 
 position of ions in cartesian coordinates  (Angst):
   0.00000000  0.00000000  0.00000000
   1.45757500  2.55924500  0.00000000
   0.00000000  3.41332900  2.38841500
   1.45757500  0.85408400  2.38841500
   0.00000000  5.11999350  3.58262250
   1.45757500  4.26590950  1.19420750
   0.00000000  1.70666450  1.19420750
   1.45757500  2.56074850  3.58262250
 


--------------------------------------------------------------------------------------------------------


 k-point  1 :   0.0625 0.0833 0.0833  plane waves:    1920
 k-point  2 :   0.1875 0.0833 0.0833  plane waves:    1924
 k-point  3 :   0.3125 0.0833 0.0833  plane waves:    1920
 k-point  4 :   0.4375 0.0833 0.0833  plane waves:    1926
 k-point  5 :  -0.4375 0.0833 0.0833  plane waves:    1926
 k-point  6 :  -0.3125 0.0833 0.0833  plane waves:    1920
 k-point  7 :  -0.1875 0.0833 0.0833  plane waves:    1924
 k-point  8 :  -0.0625 0.0833 0.0833  plane waves:    1920
 k-point  9 :   0.0625 0.2500 0.0833  plane waves:    1928
 k-point 10 :   0.1875 0.2500 0.0833  plane waves:    1920
 k-point 11 :   0.3125 0.2500 0.0833  plane waves:    1919
 k-point 12 :   0.4375 0.2500 0.0833  plane waves:    1918
 k-point 13 :  -0.4375 0.2500 0.0833  plane waves:    1918
 k-point 14 :  -0.3125 0.2500 0.0833  plane waves:    1919
 k-point 15 :  -0.1875 0.2500 0.0833  plane waves:    1920
 k-point 16 :  -0.0625 0.2500 0.0833  plane waves:    1928
 k-point 17 :   0.0625 0.4167 0.0833  plane waves:    1921
 k-point 18 :   0.1875 0.4167 0.0833  plane waves:    1927
 k-point 19 :   0.3125 0.4167 0.0833  plane waves:    1913
 k-point 20 :   0.4375 0.4167 0.0833  plane waves:    1907
 k-point 21 :  -0.4375 0.4167 0.0833  plane waves:    1907
 k-point 22 :  -0.3125 0.4167 0.0833  plane waves:    1913
 k-point 23 :  -0.1875 0.4167 0.0833  plane waves:    1927
 k-point 24 :  -0.0625 0.4167 0.0833  plane waves:    1921
 k-point 25 :   0.0625-0.4167 0.0833  plane waves:    1922
 k-point 26 :   0.1875-0.4167 0.0833  plane waves:    1926
 k-point 27 :   0.3125-0.4167 0.0833  plane waves:    1915
 k-point 28 :   0.4375-0.4167 0.0833  plane waves:    1907
 k-point 29 :  -0.4375-0.4167 0.0833  plane waves:    1907
 k-point 30 :  -0.3125-0.4167 0.0833  plane waves:    1915
 k-point 31 :  -0.1875-0.4167 0.0833  plane waves:    1926
 k-point 32 :  -0.0625-0.4167 0.0833  plane waves:    1922
 k-point 33 :   0.0625-0.2500 0.0833  plane waves:    1934
 k-point 34 :   0.1875-0.2500 0.0833  plane waves:    1923
 k-point 35 :   0.3125-0.2500 0.0833  plane waves:    1918
 k-point 36 :   0.4375-0.2500 0.0833  plane waves:    1915
 k-point 37 :  -0.4375-0.2500 0.0833  plane waves:    1915
 k-point 38 :  -0.3125-0.2500 0.0833  plane waves:    1918
 k-point 39 :  -0.1875-0.2500 0.0833  plane waves:    1923
 k-point 40 :  -0.0625-0.2500 0.0833  plane waves:    1934
 k-point 41 :   0.0625-0.0833 0.0833  plane waves:    1929
 k-point 42 :   0.1875-0.0833 0.0833  plane waves:    1926
 k-point 43 :   0.3125-0.0833 0.0833  plane waves:    1917
 k-point 44 :   0.4375-0.0833 0.0833  plane waves:    1918
 k-point 45 :  -0.4375-0.0833 0.0833  plane waves:    1918
 k-point 46 :  -0.3125-0.0833 0.0833  plane waves:    1917
 k-point 47 :  -0.1875-0.0833 0.0833  plane waves:    1926
 k-point 48 :  -0.0625-0.0833 0.0833  plane waves:    1929
 k-point 49 :   0.0625 0.0833 0.2500  plane waves:    1919
 k-point 50 :   0.1875 0.0833 0.2500  plane waves:    1923
 k-point 51 :   0.3125 0.0833 0.2500  plane waves:    1921
 k-point 52 :   0.4375 0.0833 0.2500  plane waves:    1923
 k-point 53 :  -0.4375 0.0833 0.2500  plane waves:    1923
 k-point 54 :  -0.3125 0.0833 0.2500  plane waves:    1921
 k-point 55 :  -0.1875 0.0833 0.2500  plane waves:    1923
 k-point 56 :  -0.0625 0.0833 0.2500  plane waves:    1919
 k-point 57 :   0.0625 0.2500 0.2500  plane waves:    1923
 k-point 58 :   0.1875 0.2500 0.2500  plane waves:    1913
 k-point 59 :   0.3125 0.2500 0.2500  plane waves:    1906
 k-point 60 :   0.4375 0.2500 0.2500  plane waves:    1914
 k-point 61 :  -0.4375 0.2500 0.2500  plane waves:    1914
 k-point 62 :  -0.3125 0.2500 0.2500  plane waves:    1906
 k-point 63 :  -0.1875 0.2500 0.2500  plane waves:    1913
 k-point 64 :  -0.0625 0.2500 0.2500  plane waves:    1923
 k-point 65 :   0.0625 0.4167 0.2500  plane waves:    1921
 k-point 66 :   0.1875 0.4167 0.2500  plane waves:    1920
 k-point 67 :   0.3125 0.4167 0.2500  plane waves:    1915
 k-point 68 :   0.4375 0.4167 0.2500  plane waves:    1899
 k-point 69 :  -0.4375 0.4167 0.2500  plane waves:    1899
 k-point 70 :  -0.3125 0.4167 0.2500  plane waves:    1915
 k-point 71 :  -0.1875 0.4167 0.2500  plane waves:    1920
 k-point 72 :  -0.0625 0.4167 0.2500  plane waves:    1921
 k-point 73 :   0.0625-0.4167 0.2500  plane waves:    1925
 k-point 74 :   0.1875-0.4167 0.2500  plane waves:    1923
 k-point 75 :   0.3125-0.4167 0.2500  plane waves:    1918
 k-point 76 :   0.4375-0.4167 0.2500  plane waves:    1905
 k-point 77 :  -0.4375-0.4167 0.2500  plane waves:    1905
 k-point 78 :  -0.3125-0.4167 0.2500  plane waves:    1918
 k-point 79 :  -0.1875-0.4167 0.2500  plane waves:    1923
 k-point 80 :  -0.0625-0.4167 0.2500  plane waves:    1925
 k-point 81 :   0.0625-0.2500 0.2500  plane waves:    1941
 k-point 82 :   0.1875-0.2500 0.2500  plane waves:    1930
 k-point 83 :   0.3125-0.2500 0.2500  plane waves:    1921
 k-point 84 :   0.4375-0.2500 0.2500  plane waves:    1909
 k-point 85 :  -0.4375-0.2500 0.2500  plane waves:    1909
 k-point 86 :  -0.3125-0.2500 0.2500  plane waves:    1921
 k-point 87 :  -0.1875-0.2500 0.2500  plane waves:    1930
 k-point 88 :  -0.0625-0.2500 0.2500  plane waves:    1941
 k-point 89 :   0.0625-0.0833 0.2500  plane waves:    1931
 k-point 90 :   0.1875-0.0833 0.2500  plane waves:    1923
 k-point 91 :   0.3125-0.0833 0.2500  plane waves:    1919
 k-point 92 :   0.4375-0.0833 0.2500  plane waves:    1922
 k-point 93 :  -0.4375-0.0833 0.2500  plane waves:    1922
 k-point 94 :  -0.3125-0.0833 0.2500  plane waves:    1919
 k-point 95 :  -0.1875-0.0833 0.2500  plane waves:    1923
 k-point 96 :  -0.0625-0.0833 0.2500  plane waves:    1931
 k-point 97 :   0.0625 0.0833 0.4167  plane waves:    1922
 k-point 98 :   0.1875 0.0833 0.4167  plane waves:    1922
 k-point 99 :   0.3125 0.0833 0.4167  plane waves:    1918
 k-point ** :   0.4375 0.0833 0.4167  plane waves:    1912
 k-point ** :  -0.4375 0.0833 0.4167  plane waves:    1912
 k-point ** :  -0.3125 0.0833 0.4167  plane waves:    1918
 k-point ** :  -0.1875 0.0833 0.4167  plane waves:    1922
 k-point ** :  -0.0625 0.0833 0.4167  plane waves:    1922
 k-point ** :   0.0625 0.2500 0.4167  plane waves:    1926
 k-point ** :   0.1875 0.2500 0.4167  plane waves:    1915
 k-point ** :   0.3125 0.2500 0.4167  plane waves:    1918
 k-point ** :   0.4375 0.2500 0.4167  plane waves:    1904
 k-point ** :  -0.4375 0.2500 0.4167  plane waves:    1904
 k-point ** :  -0.3125 0.2500 0.4167  plane waves:    1918
 k-point ** :  -0.1875 0.2500 0.4167  plane waves:    1915
 k-point ** :  -0.0625 0.2500 0.4167  plane waves:    1926
 k-point ** :   0.0625 0.4167 0.4167  plane waves:    1932
 k-point ** :   0.1875 0.4167 0.4167  plane waves:    1920
 k-point ** :   0.3125 0.4167 0.4167  plane waves:    1909
 k-point ** :   0.4375 0.4167 0.4167  plane waves:    1891
 k-point ** :  -0.4375 0.4167 0.4167  plane waves:    1891
 k-point ** :  -0.3125 0.4167 0.4167  plane waves:    1909
 k-point ** :  -0.1875 0.4167 0.4167  plane waves:    1920
 k-point ** :  -0.0625 0.4167 0.4167  plane waves:    1932
 k-point ** :   0.0625-0.4167 0.4167  plane waves:    1925
 k-point ** :   0.1875-0.4167 0.4167  plane waves:    1920
 k-point ** :   0.3125-0.4167 0.4167  plane waves:    1918
 k-point ** :   0.4375-0.4167 0.4167  plane waves:    1897
 k-point ** :  -0.4375-0.4167 0.4167  plane waves:    1897
 k-point ** :  -0.3125-0.4167 0.4167  plane waves:    1918
 k-point ** :  -0.1875-0.4167 0.4167  plane waves:    1920
 k-point ** :  -0.0625-0.4167 0.4167  plane waves:    1925
 k-point ** :   0.0625-0.2500 0.4167  plane waves:    1927
 k-point ** :   0.1875-0.2500 0.4167  plane waves:    1924
 k-point ** :   0.3125-0.2500 0.4167  plane waves:    1918
 k-point ** :   0.4375-0.2500 0.4167  plane waves:    1899
 k-point ** :  -0.4375-0.2500 0.4167  plane waves:    1899
 k-point ** :  -0.3125-0.2500 0.4167  plane waves:    1918
 k-point ** :  -0.1875-0.2500 0.4167  plane waves:    1924
 k-point ** :  -0.0625-0.2500 0.4167  plane waves:    1927
 k-point ** :   0.0625-0.0833 0.4167  plane waves:    1926
 k-point ** :   0.1875-0.0833 0.4167  plane waves:    1930
 k-point ** :   0.3125-0.0833 0.4167  plane waves:    1913
 k-point ** :   0.4375-0.0833 0.4167  plane waves:    1907
 k-point ** :  -0.4375-0.0833 0.4167  plane waves:    1907
 k-point ** :  -0.3125-0.0833 0.4167  plane waves:    1913
 k-point ** :  -0.1875-0.0833 0.4167  plane waves:    1930
 k-point ** :  -0.0625-0.0833 0.4167  plane waves:    1926

 maximum and minimum number of plane-waves per node :        89       66

 maximum number of plane-waves:      1941
 maximum index in each direction: 
   IXMAX=    5   IYMAX=    9   IZMAX=    9
   IXMIN=   -5   IYMIN=   -9   IZMIN=   -9

 NGX is ok and might be reduce to  22
 NGY is ok and might be reduce to  38
 NGZ is ok and might be reduce to  38

 real space projection operators:
  total allocation   :       2732.08 KBytes
  max/ min on nodes  :        130.61         94.91


 parallel 3D FFT for wavefunctions:
    minimum data exchange during FFTs selected (reduces bandwidth)
 parallel 3D FFT for charge:
    minimum data exchange during FFTs selected (reduces bandwidth)


 total amount of memory used by VASP on root node    48767. kBytes
========================================================================

   base      :      30000. kBytes
   nonlr-proj:       1052. kBytes
   fftplans  :        493. kBytes
   grid      :       1386. kBytes
   one-center:         31. kBytes
   wavefun   :      15805. kBytes
 
     INWAV:  cpu time    0.0010: real time    0.0001
 Broyden mixing: mesh for mixing (old mesh)
   NGX = 11   NGY = 19   NGZ = 19
  (NGX  = 48   NGY  = 80   NGZ  = 80)
  gives a total of   3971 points

 initial charge density was supplied:
 charge density of overlapping atoms calculated
 number of electron      59.0000000 magnetization       0.6000000
 keeping initial charge density in first step


--------------------------------------------------------------------------------------------------------


 Maximum index for non-local projection operator          413
 Maximum index for augmentation-charges          751 (set IRDMAX)


--------------------------------------------------------------------------------------------------------


 First call to EWALD:  gamma=   0.427
 Maximum number of real-space cells 4x 2x 2
 Maximum number of reciprocal cells 2x 3x 3

 FEWALD executed in parallel
    FEWALD:  cpu time    0.0020: real time    0.0016


----------------------------------------- Iteration    1(   1)  ---------------------------------------


    POTLOK:  cpu time    0.0160: real time    0.0160
    SETDIJ:  cpu time    0.0070: real time    0.0064
     EDDAV:  cpu time    6.3160: real time    6.3177
 BZINTS: Fermi energy: 24.958060; 59.000000 electrons
         Band energy:  19.979011;  BLOECHL correction: -0.229347
       DOS:  cpu time    0.1200: real time    0.1202
    --------------------------------------------
      LOOP:  cpu time    6.4610: real time    6.4636

 eigenvalue-minimisations  : 20752
 total energy-change (2. order) : 0.7564486E+03  (-0.3384482E+04)
 number of electron      59.0000000 magnetization       0.6000000
 augmentation part       59.0000000 magnetization       0.6000000

 Free energy of the ion-electron system (eV)
  ---------------------------------------------------
  alpha Z        PSCENC =       253.34086084
  Ewald energy   TEWEN  =     -4798.93613940
  -Hartree energ DENC   =     -2478.60208518
  -exchange      EXHF   =         0.00000000
  -V(xc)+E(xc)   XCENC  =       298.16780764
  PAW double counting   =      6101.23116232    -6300.03582289
  entropy T*S    EENTRO =         0.00000000
  eigenvalues    EBANDS =        19.97901116
  atomic energy  EATOM  =      7661.30377365
  Solvation  Ediel_sol  =         0.00000000
  ---------------------------------------------------
  free energy    TOTEN  =       756.44856815 eV

  energy without entropy =      756.44856815  energy(sigma->0) =      756.44856815


--------------------------------------------------------------------------------------------------------




----------------------------------------- Iteration    1(   2)  ---------------------------------------


     EDDAV:  cpu time    6.4770: real time    6.4750
 BZINTS: Fermi energy: 10.354364; 59.000000 electrons
         Band energy:-711.474281;  BLOECHL correction: -0.089500
       DOS:  cpu time    0.1180: real time    0.1181
    --------------------------------------------
      LOOP:  cpu time    6.5960: real time    6.5953

 eigenvalue-minimisations  : 21698
 total energy-change (2. order) :-0.7314533E+03  (-0.7040532E+03)
 number of electron      59.0000000 magnetization       0.6000000
 augmentation part       59.0000000 magnetization       0.6000000

 Free energy of the ion-electron system (eV)
  ---------------------------------------------------
  alpha Z        PSCENC =       253.34086084
  Ewald energy   TEWEN  =     -4798.93613940
  -Hartree energ DENC   =     -2478.60208518
  -exchange      EXHF   =         0.00000000
  -V(xc)+E(xc)   XCENC  =       298.16780764
  PAW double counting   =      6101.23116232    -6300.03582289
  entropy T*S    EENTRO =         0.00000000
  eigenvalues    EBANDS =      -711.47428090
  atomic energy  EATOM  =      7661.30377365
  Solvation  Ediel_sol  =         0.00000000
  ---------------------------------------------------
  free energy    TOTEN  =        24.99527609 eV

  energy without entropy =       24.99527609  energy(sigma->0) =       24.99527609


--------------------------------------------------------------------------------------------------------




----------------------------------------- Iteration    1(   3)  ---------------------------------------


     EDDAV:  cpu time    7.5738: real time    7.5707
 BZINTS: Fermi energy:  9.207843; 59.000000 electrons
         Band energy:-790.778723;  BLOECHL correction: -0.006374
       DOS:  cpu time    0.1180: real time    0.1186
    --------------------------------------------
      LOOP:  cpu time    7.6938: real time    7.6918

 eigenvalue-minimisations  : 26325
 total energy-change (2. order) :-0.7930444E+02  (-0.7752203E+02)
 number of electron      59.0000000 magnetization       0.6000000
 augmentation part       59.0000000 magnetization       0.6000000

 Free energy of the ion-electron system (eV)
  ---------------------------------------------------
  alpha Z        PSCENC =       253.34086084
  Ewald energy   TEWEN  =     -4798.93613940
  -Hartree energ DENC   =     -2478.60208518
  -exchange      EXHF   =         0.00000000
  -V(xc)+E(xc)   XCENC  =       298.16780764
  PAW double counting   =      6101.23116232    -6300.03582289
  entropy T*S    EENTRO =         0.00000000
  eigenvalues    EBANDS =      -790.77872330
  atomic energy  EATOM  =      7661.30377365
  Solvation  Ediel_sol  =         0.00000000
  ---------------------------------------------------
  free energy    TOTEN  =       -54.30916631 eV

  energy without entropy =      -54.30916631  energy(sigma->0) =      -54.30916631


--------------------------------------------------------------------------------------------------------




----------------------------------------- Iteration    1(   4)  ---------------------------------------


     EDDAV:  cpu time    8.5037: real time    8.5007
 BZINTS: Fermi energy:  9.136991; 59.000000 electrons
         Band energy:-795.128713;  BLOECHL correction: -0.006459
       DOS:  cpu time    0.1170: real time    0.1173
    --------------------------------------------
      LOOP:  cpu time    8.6227: real time    8.6204

 eigenvalue-minimisations  : 30191
 total energy-change (2. order) :-0.4349990E+01  (-0.4328967E+01)
 number of electron      59.0000000 magnetization       0.6000000
 augmentation part       59.0000000 magnetization       0.6000000

 Free energy of the ion-electron system (eV)
  ---------------------------------------------------
  alpha Z        PSCENC =       253.34086084
  Ewald energy   TEWEN  =     -4798.93613940
  -Hartree energ DENC   =     -2478.60208518
  -exchange      EXHF   =         0.00000000
  -V(xc)+E(xc)   XCENC  =       298.16780764
  PAW double counting   =      6101.23116232    -6300.03582289
  entropy T*S    EENTRO =         0.00000000
  eigenvalues    EBANDS =      -795.12871302
  atomic energy  EATOM  =      7661.30377365
  Solvation  Ediel_sol  =         0.00000000
  ---------------------------------------------------
  free energy    TOTEN  =       -58.65915603 eV

  energy without entropy =      -58.65915603  energy(sigma->0) =      -58.65915603


--------------------------------------------------------------------------------------------------------




----------------------------------------- Iteration    1(   5)  ---------------------------------------


     EDDAV:  cpu time    8.8787: real time    8.8748
 BZINTS: Fermi energy:  9.131270; 59.000000 electrons
         Band energy:-795.361390;  BLOECHL correction: -0.007501
       DOS:  cpu time    0.1130: real time    0.1127
    CHARGE:  cpu time    0.4089: real time    0.4090
    MIXING:  cpu time    0.0010: real time    0.0008
    --------------------------------------------
      LOOP:  cpu time    9.4036: real time    9.4073

 eigenvalue-minimisations  : 31648
 total energy-change (2. order) :-0.2326765E+00  (-0.2311646E+00)
 number of electron      58.9999991 magnetization      -0.9997923
 augmentation part       20.2695749 magnetization      -0.3551865

 Broyden mixing:
  rms(total) = 0.36636E+01    rms(broyden)= 0.36632E+01
  rms(prec ) = 0.69002E+01
  weight for this iteration     100.00

 Free energy of the ion-electron system (eV)
  ---------------------------------------------------
  alpha Z        PSCENC =       253.34086084
  Ewald energy   TEWEN  =     -4798.93613940
  -Hartree energ DENC   =     -2478.60208518
  -exchange      EXHF   =         0.00000000
  -V(xc)+E(xc)   XCENC  =       298.16780764
  PAW double counting   =      6101.23116232    -6300.03582289
  entropy T*S    EENTRO =         0.00000000
  eigenvalues    EBANDS =      -795.36138953
  atomic energy  EATOM  =      7661.30377365
  Solvation  Ediel_sol  =         0.00000000
  ---------------------------------------------------
  free energy    TOTEN  =       -58.89183253 eV

  energy without entropy =      -58.89183253  energy(sigma->0) =      -58.89183253


--------------------------------------------------------------------------------------------------------




----------------------------------------- Iteration    1(   6)  ---------------------------------------


    POTLOK:  cpu time    0.0160: real time    0.0157
    SETDIJ:  cpu time    0.0060: real time    0.0063
    EDDIAG:  cpu time    1.3548: real time    1.3535
  RMM-DIIS:  cpu time    5.6611: real time    5.6590
    ORTHCH:  cpu time    0.0380: real time    0.0378
 BZINTS: Fermi energy:  4.176362; 59.000000 electrons
         Band energy:-966.276802;  BLOECHL correction: -0.046740
       DOS:  cpu time    0.1190: real time    0.1194
    CHARGE:  cpu time    0.4109: real time    0.4108
    MIXING:  cpu time    0.0010: real time    0.0100
    --------------------------------------------
      LOOP:  cpu time    7.6068: real time    7.6141

 eigenvalue-minimisations  : 26185
 total energy-change (2. order) :-0.8527063E+01  (-0.2586985E+02)
 number of electron      59.0000007 magnetization      -1.2529279
 augmentation part       22.3563523 magnetization      -1.2613600

 Broyden mixing:
  rms(total) = 0.11351E+02    rms(broyden)= 0.11351E+02
[...]
     30       3.6100      1.00000
     31       5.8330      0.00000
     32       5.9976      0.00000
     33       8.6287      0.00000
     34       8.7160      0.00000
     35      11.0445      0.00000

 k-point   138 :       0.1875   -0.0833    0.4167
  band No.  band energies     occupation 
      1     -57.3959      1.00000
      2     -57.2851      1.00000
      3     -57.2830      1.00000
      4     -46.5972      1.00000
      5     -46.5845      1.00000
      6     -46.3954      1.00000
      7     -40.1150      1.00000
      8     -38.7429      1.00000
      9     -13.9196      1.00000
     10     -13.1896      1.00000
     11     -12.5277      1.00000
     12     -12.2904      1.00000
     13      -2.0502      1.00000
     14      -1.6977      1.00000
     15      -1.2335      1.00000
     16      -1.1883      1.00000
     17      -0.4501      1.00000
     18       0.1372      1.00000
     19       0.7245      1.00000
     20       0.7935      1.00000
     21       1.2283      1.00000
     22       1.6120      1.00000
     23       1.8196      1.00000
     24       2.0582      1.00000
     25       2.2605      1.00000
     26       2.4231      1.00000
     27       2.6594      1.00000
     28       2.9336      1.00000
     29       3.3010      1.00000
     30       3.6120      1.00000
     31       5.3814      0.00000
     32       6.1187      0.00000
     33       8.5287      0.00000
     34       8.7087      0.00000
     35      11.9372      0.00000

 k-point   139 :       0.3125   -0.0833    0.4167
  band No.  band energies     occupation 
      1     -57.3952      1.00000
      2     -57.2927      1.00000
      3     -57.2820      1.00000
      4     -46.6155      1.00000
      5     -46.5926      1.00000
      6     -46.3929      1.00000
      7     -40.1104      1.00000
      8     -38.7379      1.00000
      9     -13.5587      1.00000
     10     -13.1971      1.00000
     11     -12.4197      1.00000
     12     -12.1931      1.00000
     13      -1.8199      1.00000
     14      -1.6801      1.00000
     15      -1.2873      1.00000
     16      -1.2097      1.00000
     17      -0.4893      1.00000
     18      -0.1766      1.00000
     19       0.3710      1.00000
     20       0.5823      1.00000
     21       1.0998      1.00000
     22       1.5760      1.00000
     23       1.6482      1.00000
     24       1.9288      1.00000
     25       2.1763      1.00000
     26       2.4114      1.00000
     27       2.5698      1.00000
     28       2.7794      1.00000
     29       3.2375      1.00000
     30       3.4377      1.00000
     31       5.1489      0.00000
     32       6.1166      0.00000
     33       8.5237      0.00000
     34       8.6809      0.00000
     35      13.0943      0.00000

 k-point   140 :       0.4375   -0.0833    0.4167
  band No.  band energies     occupation 
      1     -57.3949      1.00000
      2     -57.2981      1.00000
      3     -57.2813      1.00000
      4     -46.6374      1.00000
      5     -46.5893      1.00000
      6     -46.3912      1.00000
      7     -40.1073      1.00000
      8     -38.7343      1.00000
      9     -13.2563      1.00000
     10     -13.2034      1.00000
     11     -12.3776      1.00000
     12     -12.1154      1.00000
     13      -2.1721      1.00000
     14      -1.9072      1.00000
     15      -0.9704      1.00000
     16      -0.9021      1.00000
     17      -0.5493      1.00000
     18      -0.1516      1.00000
     19       0.0582      1.00000
     20       0.4526      1.00000
     21       1.0550      1.00000
     22       1.2902      1.00000
     23       1.4544      1.00000
     24       2.0584      1.00000
     25       2.2905      1.00000
     26       2.3926      1.00000
     27       2.4944      1.00000
     28       2.7333      1.00000
     29       3.0392      1.00000
     30       3.2720      1.00000
     31       5.2121      0.00000
     32       6.0364      0.00000
     33       8.5155      0.00000
     34       8.6941      0.00000
     35      13.3632      0.00000

 k-point   141 :      -0.4375   -0.0833    0.4167
  band No.  band energies     occupation 
      1     -57.3949      1.00000
      2     -57.2981      1.00000
      3     -57.2813      1.00000
      4     -46.6374      1.00000
      5     -46.5893      1.00000
      6     -46.3912      1.00000
      7     -40.1073      1.00000
      8     -38.7343      1.00000
      9     -13.2563      1.00000
     10     -13.2034      1.00000
     11     -12.3776      1.00000
     12     -12.1154      1.00000
     13      -2.1721      1.00000
     14      -1.9072      1.00000
     15      -0.9704      1.00000
     16      -0.9021      1.00000
     17      -0.5493      1.00000
     18      -0.1515      1.00000
     19       0.0582      1.00000
     20       0.4526      1.00000
     21       1.0549      1.00000
     22       1.2902      1.00000
     23       1.4544      1.00000
     24       2.0584      1.00000
     25       2.2905      1.00000
     26       2.3926      1.00000
     27       2.4944      1.00000
     28       2.7333      1.00000
     29       3.0392      1.00000
     30       3.2720      1.00000
     31       5.2121      0.00000
     32       6.0364      0.00000
     33       8.5155      0.00000
     34       8.6941      0.00000
     35      13.3632      0.00000

 k-point   142 :      -0.3125   -0.0833    0.4167
  band No.  band energies     occupation 
      1     -57.3952      1.00000
      2     -57.2927      1.00000
      3     -57.2820      1.00000
      4     -46.6155      1.00000
      5     -46.5926      1.00000
      6     -46.3929      1.00000
      7     -40.1104      1.00000
      8     -38.7379      1.00000
      9     -13.5587      1.00000
     10     -13.1971      1.00000
     11     -12.4197      1.00000
     12     -12.1931      1.00000
     13      -1.8199      1.00000
     14      -1.6801      1.00000
     15      -1.2873      1.00000
     16      -1.2097      1.00000
     17      -0.4893      1.00000
     18      -0.1766      1.00000
     19       0.3710      1.00000
     20       0.5823      1.00000
     21       1.0997      1.00000
     22       1.5760      1.00000
     23       1.6482      1.00000
     24       1.9288      1.00000
     25       2.1763      1.00000
     26       2.4114      1.00000
     27       2.5699      1.00000
     28       2.7794      1.00000
     29       3.2375      1.00000
     30       3.4377      1.00000
     31       5.1489      0.00000
     32       6.1166      0.00000
     33       8.5237      0.00000
     34       8.6808      0.00000
     35      13.0942      0.00000

 k-point   143 :      -0.1875   -0.0833    0.4167
  band No.  band energies     occupation 
      1     -57.3959      1.00000
      2     -57.2851      1.00000
      3     -57.2830      1.00000
      4     -46.5972      1.00000
      5     -46.5845      1.00000
      6     -46.3954      1.00000
      7     -40.1150      1.00000
      8     -38.7429      1.00000
      9     -13.9196      1.00000
     10     -13.1896      1.00000
     11     -12.5277      1.00000
     12     -12.2904      1.00000
     13      -2.0502      1.00000
     14      -1.6977      1.00000
     15      -1.2335      1.00000
     16      -1.1883      1.00000
     17      -0.4501      1.00000
     18       0.1372      1.00000
     19       0.7244      1.00000
     20       0.7935      1.00000
     21       1.2283      1.00000
     22       1.6120      1.00000
     23       1.8195      1.00000
     24       2.0582      1.00000
     25       2.2605      1.00000
     26       2.4231      1.00000
     27       2.6594      1.00000
     28       2.9335      1.00000
     29       3.3011      1.00000
     30       3.6120      1.00000
     31       5.3814      0.00000
     32       6.1186      0.00000
     33       8.5287      0.00000
     34       8.7086      0.00000
     35      11.9373      0.00000

 k-point   144 :      -0.0625   -0.0833    0.4167
  band No.  band energies     occupation 
      1     -57.3963      1.00000
      2     -57.2836      1.00000
      3     -57.2795      1.00000
      4     -46.6005      1.00000
      5     -46.5625      1.00000
      6     -46.3971      1.00000
      7     -40.1181      1.00000
      8     -38.7465      1.00000
      9     -14.1460      1.00000
     10     -13.1869      1.00000
     11     -12.6181      1.00000
     12     -12.3526      1.00000
     13      -2.4128      1.00000
     14      -1.9597      1.00000
     15      -1.0115      1.00000
     16      -0.6401      1.00000
     17      -0.6082      1.00000
     18       0.2172      1.00000
     19       0.6882      1.00000
     20       0.8708      1.00000
     21       1.5858      1.00000
     22       1.7824      1.00000
     23       1.9310      1.00000
     24       2.1470      1.00000
     25       2.1755      1.00000
     26       2.6517      1.00000
     27       2.9277      1.00000
     28       3.0125      1.00000
     29       3.3575      1.00000
     30       3.6100      1.00000
     31       5.8330      0.00000
     32       5.9976      0.00000
     33       8.6288      0.00000
     34       8.7159      0.00000
     35      11.0445      0.00000


--------------------------------------------------------------------------------------------------------


 soft charge-density along one line, spin component           1
         0         1         2         3         4         5         6         7         8         9
 total charge-density along one line
 
 soft charge-density along one line, spin component           2
         0         1         2         3         4         5         6         7         8         9
 total charge-density along one line
 
 pseudopotential strength for first ion, spin component:           1
-37.636   3.747  -0.000  -0.000  -0.000
  3.747 -10.168  -0.000  -0.000  -0.000
 -0.000  -0.000   0.190   0.000   0.000
 -0.000  -0.000   0.000   0.190   0.000
 -0.000  -0.000   0.000   0.000   0.190
 pseudopotential strength for first ion, spin component:           2
-37.633   3.748  -0.000  -0.000  -0.000
  3.748 -10.170  -0.000  -0.000  -0.000
 -0.000  -0.000   0.191   0.000   0.000
 -0.000  -0.000   0.000   0.191   0.000
 -0.000  -0.000   0.000   0.000   0.191
 total augmentation occupancy for first ion, spin component:           1
  2.000  -0.009   0.000   0.000   0.000
 -0.009   0.527  -0.000   0.000  -0.000
  0.000  -0.000   0.019  -0.000  -0.000
  0.000   0.000  -0.000   0.019  -0.000
  0.000  -0.000  -0.000  -0.000   0.018
 total augmentation occupancy for first ion, spin component:           2
 -0.000  -0.001   0.000  -0.000   0.000
 -0.001   0.008  -0.000  -0.000   0.000
  0.000  -0.000   0.001   0.000  -0.000
 -0.000  -0.000   0.000   0.001  -0.000
  0.000   0.000  -0.000  -0.000   0.001


------------------------ aborting loop because EDIFF is reached ----------------------------------------


 


 total charge     
 
# of ion     s       p       d       tot
----------------------------------------
  1        2.010   0.039   0.000   2.049
  2        2.020   0.056   0.000   2.076
  3        0.335   6.421   4.808  11.564
  4        0.228   6.207   7.941  14.375
  5        1.557   3.465   0.000   5.022
  6        1.561   3.459   0.000   5.020
  7        1.557   3.465   0.000   5.022
  8        1.561   3.459   0.000   5.020
------------------------------------------------
tot       10.828  26.571  12.749  50.148
 


 magnetization (x)
 
# of ion     s       p       d       tot
----------------------------------------
  1        0.000   0.001   0.000   0.002
  2        0.000   0.002   0.000   0.002
  3       -0.022  -0.034  -3.111  -3.167
  4       -0.000   0.002   1.726   1.727
  5        0.006   0.092   0.000   0.098
  6        0.004   0.112   0.000   0.116
  7        0.006   0.092   0.000   0.098
  8        0.004   0.112   0.000   0.116
------------------------------------------------
tot       -0.002   0.379  -1.385  -1.007
 
    CHARGE:  cpu time    0.3999: real time    0.4001
    FORLOC:  cpu time    0.0020: real time    0.0014
    FORNL :  cpu time    1.9247: real time    1.9470
    STRESS:  cpu time    5.6061: real time    5.6049
    FORCOR:  cpu time    0.0150: real time    0.0161
    FORHAR:  cpu time    0.0030: real time    0.0027
    MIXING:  cpu time    0.0010: real time    0.0006
    OFIELD:  cpu time    0.0000: real time    0.0000

  FORCE on cell =-STRESS in cart. coord.  units (eV):
  Direction    XX          YY          ZZ          XY          YZ          ZX
  --------------------------------------------------------------------------------------
  Alpha Z   254.13221   254.13221   254.13221
  Ewald    -984.69098  -977.79587 -2695.29534     0.01899   -14.31889    -0.02003
  Hartree  1309.84528  1310.25002   -75.19601     0.01084   -16.27682    -0.01232
  E(xc)    -344.29792  -344.23732  -344.63609     0.00002     0.01203    -0.00003
  Local   -1292.43586 -1300.50737  1795.53177    -0.02962    29.06588     0.03232
  n-local  -247.49211  -246.85631  -249.16707    -0.00009     0.26950     0.00011
  augment   342.48611   342.24780   344.12634     0.00009     0.54376    -0.00013
  Kinetic   962.47479   962.72604   970.56458    -0.00022     0.72571     0.00008
  Fock        0.00000     0.00000     0.00000     0.00000     0.00000     0.00000
  -------------------------------------------------------------------------------------
  Total       0.02154    -0.04081     0.06041     0.00003     0.02117     0.00002
  in kB       0.48569    -0.92012     1.36211     0.00073     0.47735     0.00036
  external pressure =        0.31 kB  Pullay stress =        0.00 kB


 VOLUME and BASIS-vectors are now :
 -----------------------------------------------------------------------------
  energy-cutoff  :      520.00
  volume of cell :       71.05
      direct lattice vectors                 reciprocal lattice vectors
     2.912305437 -0.000011711 -0.000003753     0.343370578  0.000001350  0.000000580
    -0.000020031  5.103628718 -0.023477505     0.000000698  0.195621981 -0.068918776
    -0.000014670  1.681468385  4.772751297     0.000000273  0.000962279  0.209183738

  length of vectors
     2.912305437  5.103682718  5.060285651     0.343370578  0.207407225  0.209185952


 FORCES acting on ions
    electron-ion (+dipol)            ewald-force                    non-local-force                 convergence-correction
 -----------------------------------------------------------------------------------------------
   -.162E-03 -.123E-03 0.197E-04   0.151E-03 0.116E-03 -.233E-04   0.107E-04 0.622E-05 0.145E-05   -.565E-08 0.543E-06 0.107E-05
   -.121E-03 -.368E-04 -.147E-05   0.113E-03 0.331E-04 0.215E-05   0.937E-05 0.504E-05 0.335E-06   -.407E-08 -.436E-06 0.714E-07
   0.368E-04 0.268E-03 -.192E-03   -.400E-04 -.277E-03 0.197E-03   0.304E-06 0.451E-06 -.146E-05   -.395E-06 -.324E-06 0.313E-06
   -.136E-04 -.230E-03 0.112E-03   0.890E-05 0.242E-03 -.114E-03   0.621E-05 -.492E-05 0.698E-05   0.701E-07 -.471E-06 -.339E-05
   0.802E-02 -.335E+01 -.353E+03   -.844E-02 0.700E+01 0.365E+03   0.429E-03 -.369E+01 -.120E+02   0.306E-05 -.756E-03 -.727E-03
   -.913E-03 -.465E+01 0.346E+03   0.988E-03 0.806E+01 -.359E+03   -.458E-04 -.344E+01 0.134E+02   0.180E-05 -.892E-03 0.141E-02
   -.786E-02 0.335E+01 0.353E+03   0.827E-02 -.700E+01 -.365E+03   -.412E-03 0.369E+01 0.120E+02   -.300E-05 0.756E-03 0.726E-03
   0.964E-03 0.465E+01 -.346E+03   -.105E-02 -.806E+01 0.359E+03   0.505E-04 0.344E+01 -.134E+02   -.182E-05 0.893E-03 -.141E-02
 -----------------------------------------------------------------------------------------------
   -.521E-04 -.238E-04 -.152E-04   -.116E-13 0.355E-14 0.000E+00   0.487E-04 0.225E-04 0.167E-04   -.304E-06 -.688E-06 -.366E-05
 
 
 POSITION                                       TOTAL-FORCE (eV/Angst)
 -----------------------------------------------------------------------------------
     -0.00000     -0.00000     -0.00000         0.000001      0.000000     -0.000001
      1.45614      2.55181     -0.01174         0.000003      0.000001      0.000001
     -0.00002      3.39255      2.37464        -0.000003     -0.000009      0.000005
      1.45615      0.84073      2.38637         0.000002      0.000006      0.000002
      0.00001      4.99010      3.45236         0.000007     -0.049392     -0.026669
      1.45613      4.15027      1.28973         0.000032     -0.032741      0.004088
     -0.00004      1.79499      1.29691        -0.000009      0.049392      0.026666
      1.45614      2.63482      3.45954        -0.000033      0.032742     -0.004093
 -----------------------------------------------------------------------------------
    total drift:                               -0.000004     -0.000002     -0.000002


--------------------------------------------------------------------------------------------------------



  FREE ENERGIE OF THE ION-ELECTRON SYSTEM (eV)
  ---------------------------------------------------
  free  energy   TOTEN  =       -46.25879139 eV

  energy  without entropy=      -46.25879139  energy(sigma->0) =      -46.25879139
 
 d Force = 0.1367614E-04[ 0.665E-05, 0.207E-04]  d Energy = 0.7812629E-04-0.645E-04
 d Force =-0.3216963E+00[-0.322E+00,-0.321E+00]  d Ewald  =-0.2900911E+00-0.316E-01


--------------------------------------------------------------------------------------------------------


    POTLOK:  cpu time    0.0220: real time    0.0217


--------------------------------------------------------------------------------------------------------




--------------------------------------------------------------------------------------------------------


  
 reached required accuracy - stopping structural energy minimisation
     LOOP+:  cpu time   34.6337: real time   34.6631
    4ORBIT:  cpu time    0.0000: real time    0.0000
 


 total charge     
 
# of ion     s       p       d       tot
----------------------------------------
  1        2.010   0.039   0.000   2.049
  2        2.020   0.056   0.000   2.076
  3        0.335   6.421   4.808  11.564
  4        0.228   6.207   7.941  14.375
  5        1.557   3.465   0.000   5.022
  6        1.561   3.459   0.000   5.020
  7        1.557   3.465   0.000   5.022
  8        1.561   3.459   0.000   5.020
------------------------------------------------
tot       10.828  26.571  12.749  50.148
 


 magnetization (x)
 
# of ion     s       p       d       tot
----------------------------------------
  1        0.000   0.001   0.000   0.002
  2        0.000   0.002   0.000   0.002
  3       -0.022  -0.034  -3.111  -3.167
  4       -0.000   0.002   1.726   1.727
  5        0.006   0.092   0.000   0.098
  6        0.004   0.112   0.000   0.116
  7        0.006   0.092   0.000   0.098
  8        0.004   0.112   0.000   0.116
------------------------------------------------
tot       -0.002   0.379  -1.385  -1.007
 
 BZINTS: Fermi energy:  4.581273; 59.000000 electrons
         Band energy:-846.744757;  BLOECHL correction:  0.000000

 total amount of memory used by VASP on root node    48767. kBytes
========================================================================

   base      :      30000. kBytes
   nonlr-proj:       1052. kBytes
   fftplans  :        493. kBytes
   grid      :       1386. kBytes
   one-center:         31. kBytes
   wavefun   :      15805. kBytes
 
  
  
 General timing and accounting informations for this job:
 ========================================================
  
                  Total CPU time used (sec):      516.645
                            User time (sec):      512.984
                          System time (sec):        3.661
                         Elapsed time (sec):      516.995
  
                   Maximum memory used (kb):       89696.
                   Average memory used (kb):           0.
  
                          Minor page faults:        15238
                          Major page faults:            6
                 Voluntary context switches:         2915
