       N       E                     dE             d eps       ncg     rms          rms(c)
DAV:   1     0.756448568148E+03    0.75645E+03   -0.33845E+04 20752   0.200E+03
DAV:   2     0.249952760908E+02   -0.73145E+03   -0.70405E+03 21698   0.584E+02
DAV:   3    -0.543091663068E+02   -0.79304E+02   -0.77522E+02 26325   0.192E+02
DAV:   4    -0.586591560293E+02   -0.43500E+01   -0.43290E+01 30191   0.391E+01
DAV:   5    -0.588918325334E+02   -0.23268E+00   -0.23116E+00 31648   0.716E+00    0.366E+01
RMM:   6    -0.674188955050E+02   -0.85271E+01   -0.25870E+02 26185   0.108E+02    0.114E+02
RMM:   7    -0.513220271757E+02    0.16097E+02   -0.29463E+01 20965   0.449E+01    0.387E+01
RMM:   8    -0.446613412163E+02    0.66607E+01   -0.24055E+01 20397   0.347E+01    0.998E+00
RMM:   9    -0.452941726873E+02   -0.63283E+00   -0.24778E+00 22792   0.960E+00    0.729E+00
RMM:  10    -0.453851271601E+02   -0.90954E-01   -0.37345E-01 23978   0.408E+00    0.438E+00
RMM:  11    -0.455274101539E+02   -0.14228E+00   -0.18104E-01 23985   0.254E+00    0.247E+00
RMM:  12    -0.455604438499E+02   -0.33034E-01   -0.91098E-02 24314   0.196E+00    0.152E+00
RMM:  13    -0.455691962973E+02   -0.87524E-02   -0.24340E-02 24127   0.950E-01    0.513E-01
RMM:  14    -0.455746345426E+02   -0.54382E-02   -0.87597E-03 23965   0.509E-01    0.373E-01
RMM:  15    -0.455758362792E+02   -0.12017E-02   -0.35321E-03 20680   0.332E-01    0.210E-01
RMM:  16    -0.455748350636E+02    0.10012E-02   -0.19324E-03 18033   0.241E-01    0.198E-01
RMM:  17    -0.455754571386E+02   -0.62208E-03   -0.44303E-04 13135   0.180E-01    0.365E-02
RMM:  18    -0.455754394853E+02    0.17653E-04   -0.80323E-04 14660   0.161E-01
   1 F= -.45575439E+02 E0= -.45575439E+02  d E =-.455754E+02  mag=    -1.1202
       N       E                     dE             d eps       ncg     rms          rms(c)
DAV:   1    -0.472502406250E+02   -0.16748E+01   -0.24116E+02 20310   0.117E+02    0.132E+01
RMM:   2    -0.466149085748E+02    0.63533E+00   -0.18777E+01 20368   0.348E+01    0.111E+01
RMM:   3    -0.462907369589E+02    0.32417E+00   -0.15557E+00 24834   0.828E+00    0.451E+00
RMM:   4    -0.461891661018E+02    0.10157E+00   -0.29615E-01 22496   0.432E+00    0.237E+00
RMM:   5    -0.461577297526E+02    0.31436E-01   -0.62747E-02 24715   0.156E+00    0.145E+00
RMM:   6    -0.461505561328E+02    0.71736E-02   -0.26519E-02 25244   0.924E-01    0.432E-01
RMM:   7    -0.461498273942E+02    0.72874E-03   -0.60802E-03 23440   0.526E-01    0.161E-01
RMM:   8    -0.461499289203E+02   -0.10153E-03   -0.30510E-03 20480   0.303E-01
   2 F= -.46149929E+02 E0= -.46149929E+02  d E =-.574489E+00  mag=    -1.0000
       N       E                     dE             d eps       ncg     rms          rms(c)
DAV:   1    -0.461922342540E+02   -0.42407E-01   -0.68911E+00 21501   0.205E+01    0.237E+00
RMM:   2    -0.461779449183E+02    0.14289E-01   -0.51044E-01 20877   0.588E+00    0.224E+00
RMM:   3    -0.461635461889E+02    0.14399E-01   -0.42315E-02 24147   0.135E+00    0.837E-01
RMM:   4    -0.461610686961E+02    0.24775E-02   -0.97311E-03 22279   0.802E-01    0.500E-01
RMM:   5    -0.461602521427E+02    0.81655E-03   -0.22616E-03 20184   0.271E-01    0.292E-01
RMM:   6    -0.461600702423E+02    0.18190E-03   -0.77266E-04 12990   0.194E-01
   3 F= -.46160070E+02 E0= -.46160070E+02  d E =-.584631E+00  mag=    -1.0000
       N       E                     dE             d eps       ncg     rms          rms(c)
DAV:   1    -0.478705741080E+02   -0.17103E+01   -0.75386E+01 20284   0.897E+01    0.141E+01
RMM:   2    -0.470483870955E+02    0.82219E+00   -0.13499E+01 20533   0.320E+01    0.161E+01
RMM:   3    -0.463302866206E+02    0.71810E+00   -0.17865E+00 25026   0.827E+00    0.472E+00
RMM:   4    -0.462657810695E+02    0.64506E-01   -0.33769E-01 22938   0.397E+00    0.238E+00
RMM:   5    -0.462468700889E+02    0.18911E-01   -0.48313E-02 27499   0.123E+00    0.154E+00
RMM:   6    -0.462428832944E+02    0.39868E-02   -0.80756E-03 23902   0.659E-01    0.681E-01
RMM:   7    -0.462420810521E+02    0.80224E-03   -0.50744E-03 22863   0.559E-01    0.133E-01
RMM:   8    -0.462420494061E+02    0.31646E-04   -0.18184E-03 18171   0.289E-01
   4 F= -.46242049E+02 E0= -.46242049E+02  d E =-.819792E-01  mag=    -1.0000
       N       E                     dE             d eps       ncg     rms          rms(c)
DAV:   1    -0.462453222278E+02   -0.32412E-02   -0.11150E-01 22033   0.337E+00    0.471E-01
RMM:   2    -0.462437967213E+02    0.15255E-02   -0.19056E-02 20045   0.118E+00    0.499E-01
RMM:   3    -0.462430430751E+02    0.75365E-03   -0.24526E-03 20747   0.311E-01    0.159E-01
RMM:   4    -0.462429359526E+02    0.10712E-03   -0.34521E-04 10580   0.154E-01    0.801E-02
RMM:   5    -0.462429218522E+02    0.14100E-04   -0.15012E-04 10483   0.104E-01    0.687E-02
RMM:   6    -0.462429159318E+02    0.59204E-05   -0.43995E-05  8561   0.511E-02
   5 F= -.46242916E+02 E0= -.46242916E+02  d E =-.828457E-01  mag=    -1.0000
       N       E                     dE             d eps       ncg     rms          rms(c)
DAV:   1    -0.464027122697E+02   -0.15979E+00   -0.64136E+00 20187   0.264E+01    0.422E+00
RMM:   2    -0.463150406823E+02    0.87672E-01   -0.11379E+00 20896   0.952E+00    0.431E+00
RMM:   3    -0.462668858083E+02    0.48155E-01   -0.14409E-01 24597   0.236E+00    0.134E+00
RMM:   4    -0.462583634845E+02    0.85223E-02   -0.29324E-02 20514   0.134E+00    0.780E-01
RMM:   5    -0.462557914581E+02    0.25720E-02   -0.49856E-03 23585   0.400E-01    0.424E-01
RMM:   6    -0.462551097139E+02    0.68174E-03   -0.14786E-03 15467   0.281E-01    0.156E-01
RMM:   7    -0.462550836961E+02    0.26018E-04   -0.56136E-04 10988   0.217E-01
   6 F= -.46255084E+02 E0= -.46255084E+02  d E =-.121678E-01  mag=    -1.0000
       N       E                     dE             d eps       ncg     rms          rms(c)
DAV:   1    -0.462560515516E+02   -0.94184E-03   -0.33628E-02 21720   0.187E+00    0.299E-01
RMM:   2    -0.462555872234E+02    0.46433E-03   -0.56551E-03 18879   0.670E-01    0.296E-01
RMM:   3    -0.462553659949E+02    0.22123E-03   -0.62728E-04 11279   0.172E-01    0.944E-02
RMM:   4    -0.462553270414E+02    0.38953E-04   -0.21575E-04 10213   0.113E-01    0.696E-02
RMM:   5    -0.462553208708E+02    0.61706E-05   -0.60379E-05 10104   0.590E-02    0.368E-02
RMM:   6    -0.462553176287E+02    0.32421E-05   -0.20274E-05  6882   0.374E-02
   7 F= -.46255318E+02 E0= -.46255318E+02  d E =-.124017E-01  mag=    -1.0000
       N       E                     dE             d eps       ncg     rms          rms(c)
DAV:   1    -0.462755025095E+02   -0.20182E-01   -0.15048E+00 20163   0.100E+01    0.124E+00
RMM:   2    -0.462648707009E+02    0.10632E-01   -0.10274E-01 20402   0.280E+00    0.108E+00
RMM:   3    -0.462608688794E+02    0.40018E-02   -0.11389E-02 23162   0.682E-01    0.525E-01
RMM:   4    -0.462591595118E+02    0.17094E-02   -0.40018E-03 18874   0.445E-01    0.263E-01
RMM:   5    -0.462587226433E+02    0.43687E-03   -0.12254E-03 14008   0.255E-01    0.185E-01
RMM:   6    -0.462587132663E+02    0.93771E-05   -0.26748E-04 10430   0.135E-01
   8 F= -.46258713E+02 E0= -.46258713E+02  d E =-.339564E-02  mag=    -1.0000
       N       E                     dE             d eps       ncg     rms          rms(c)
DAV:   1    -0.462588223979E+02   -0.99755E-04   -0.64634E-03 21792   0.680E-01    0.829E-02
RMM:   2    -0.462587847644E+02    0.37634E-04   -0.36506E-04 10359   0.177E-01    0.791E-02
RMM:   3    -0.462587827725E+02    0.19919E-05   -0.98683E-05 10209   0.789E-02    0.418E-02
RMM:   4    -0.462587848550E+02   -0.20824E-05   -0.54625E-05  9865   0.630E-02    0.258E-02
RMM:   5    -0.462587894655E+02   -0.46105E-05   -0.25162E-05  6761   0.400E-02    0.169E-02
RMM:   6    -0.462587913926E+02   -0.19271E-05   -0.10050E-05  4171   0.315E-02
   9 F= -.46258791E+02 E0= -.46258791E+02  d E =-.347376E-02  mag=    -1.0000
