       N       E                     dE             d eps       ncg     rms          rms(c)
DAV:   1     0.804899457664E+02    0.80490E+02   -0.26366E+04 13824   0.107E+03
DAV:   2    -0.509519228071E+02   -0.13144E+03   -0.13125E+03 17520   0.136E+02
DAV:   3    -0.524220948066E+02   -0.14702E+01   -0.14698E+01 17664   0.191E+01
DAV:   4    -0.524240405580E+02   -0.19458E-02   -0.19451E-02 22176   0.707E-01
DAV:   5    -0.524240408245E+02   -0.26648E-06   -0.26587E-06 18624   0.613E-03    0.269E+01
RMM:   6    -0.607997867474E+02   -0.83757E+01   -0.68953E+01 14070   0.469E+01    0.357E+01
RMM:   7    -0.438308752750E+02    0.16969E+02   -0.16440E+01 13830   0.181E+01    0.150E+01
RMM:   8    -0.414696021601E+02    0.23613E+01   -0.85642E-01 13827   0.580E+00    0.814E+00
RMM:   9    -0.412359432085E+02    0.23366E+00   -0.17933E-01 14009   0.243E+00    0.337E+00
RMM:  10    -0.415008935947E+02   -0.26495E+00   -0.74730E-02 13890   0.168E+00    0.551E+00
RMM:  11    -0.417106925415E+02   -0.20980E+00   -0.64268E-02 13956   0.154E+00    0.428E+00
RMM:  12    -0.417681815509E+02   -0.57489E-01   -0.55663E-02 13995   0.146E+00    0.194E+00
RMM:  13    -0.418136317851E+02   -0.45450E-01   -0.18453E-02 14005   0.857E-01    0.871E-01
RMM:  14    -0.418352872539E+02   -0.21655E-01   -0.12070E-02 14008   0.704E-01    0.337E-01
RMM:  15    -0.418402261504E+02   -0.49389E-02   -0.16578E-03 12927   0.284E-01    0.159E-01
RMM:  16    -0.418411537624E+02   -0.92761E-03   -0.60267E-04 10420   0.162E-01    0.107E-01
RMM:  17    -0.418415527837E+02   -0.39902E-03   -0.13029E-04  9935   0.769E-02
   1 F= -.41841553E+02 E0= -.41841553E+02  d E =-.418416E+02  mag=     1.0043
       N       E                     dE             d eps       ncg     rms          rms(c)
DAV:   1    -0.452504149566E+02   -0.34093E+01   -0.32567E+02 13824   0.882E+01    0.125E+01
RMM:   2    -0.432078292197E+02    0.20426E+01   -0.74080E+00 13824   0.171E+01    0.639E+00
RMM:   3    -0.432378190685E+02   -0.29990E-01   -0.15949E+00 13988   0.652E+00    0.894E+00
RMM:   4    -0.426679257172E+02    0.56989E+00   -0.44560E-01 14094   0.392E+00    0.356E+00
RMM:   5    -0.425419219066E+02    0.12600E+00   -0.88629E-02 14007   0.175E+00    0.128E+00
RMM:   6    -0.425235359182E+02    0.18386E-01   -0.13620E-02 13861   0.595E-01    0.613E-01
RMM:   7    -0.425194724383E+02    0.40635E-02   -0.33449E-03 13806   0.363E-01    0.298E-01
RMM:   8    -0.425187605273E+02    0.71191E-03   -0.17438E-03 13541   0.238E-01    0.118E-01
RMM:   9    -0.425188394897E+02   -0.78962E-04   -0.10492E-04 10041   0.732E-02
   2 F= -.42518839E+02 E0= -.42518839E+02  d E =-.677287E+00  mag=     1.0001
       N       E                     dE             d eps       ncg     rms          rms(c)
DAV:   1    -0.425606221722E+02   -0.41862E-01   -0.35496E+00 21312   0.999E+00    0.129E+00
RMM:   2    -0.425411653453E+02    0.19457E-01   -0.67576E-02 13862   0.165E+00    0.827E-01
RMM:   3    -0.425375671163E+02    0.35982E-02   -0.17984E-02 13880   0.722E-01    0.763E-01
RMM:   4    -0.425318365211E+02    0.57306E-02   -0.44851E-03 13637   0.391E-01    0.265E-01
RMM:   5    -0.425309414559E+02    0.89507E-03   -0.61389E-04 10916   0.155E-01    0.120E-01
RMM:   6    -0.425307332061E+02    0.20825E-03   -0.13951E-04  9746   0.753E-02
   3 F= -.42530733E+02 E0= -.42530733E+02  d E =-.689180E+00  mag=     1.0000
       N       E                     dE             d eps       ncg     rms          rms(c)
DAV:   1    -0.429206348354E+02   -0.38969E+00   -0.30326E+01 13824   0.280E+01    0.395E+00
RMM:   2    -0.427271068159E+02    0.19353E+00   -0.68090E-01 13824   0.521E+00    0.336E+00
RMM:   3    -0.426914838103E+02    0.35623E-01   -0.20422E-01 13852   0.253E+00    0.263E+00
RMM:   4    -0.426211079480E+02    0.70376E-01   -0.50939E-02 14200   0.132E+00    0.708E-01
RMM:   5    -0.426159126537E+02    0.51953E-02   -0.43892E-03 13542   0.378E-01    0.446E-01
RMM:   6    -0.426137131590E+02    0.21995E-02   -0.16818E-03 13173   0.232E-01    0.109E-01
RMM:   7    -0.426136053656E+02    0.10779E-03   -0.15521E-04  9983   0.855E-02
   4 F= -.42613605E+02 E0= -.42613605E+02  d E =-.828722E-01  mag=     1.0000
       N       E                     dE             d eps       ncg     rms          rms(c)
DAV:   1    -0.427200570674E+02   -0.10634E+00   -0.90909E+00 14832   0.152E+01    0.216E+00
RMM:   2    -0.426642722244E+02    0.55785E-01   -0.20564E-01 13830   0.285E+00    0.192E+00
RMM:   3    -0.426514067801E+02    0.12865E-01   -0.62229E-02 13861   0.138E+00    0.153E+00
RMM:   4    -0.426301420387E+02    0.21265E-01   -0.15411E-02 14148   0.725E-01    0.391E-01
RMM:   5    -0.426285286508E+02    0.16134E-02   -0.12751E-03 11910   0.206E-01    0.237E-01
RMM:   6    -0.426279727395E+02    0.55591E-03   -0.55173E-04 10615   0.139E-01    0.588E-02
RMM:   7    -0.426279283578E+02    0.44382E-04   -0.78111E-05  9776   0.579E-02
   5 F= -.42627928E+02 E0= -.42627928E+02  d E =-.971952E-01  mag=     1.0000
       N       E                     dE             d eps       ncg     rms          rms(c)
DAV:   1    -0.426450749228E+02   -0.17102E-01   -0.31935E+00 14400   0.784E+00    0.735E-01
RMM:   2    -0.426455431949E+02   -0.46827E-03   -0.42446E-02 13824   0.117E+00    0.821E-01
RMM:   3    -0.426400361832E+02    0.55070E-02   -0.63031E-03 13819   0.431E-01    0.494E-01
RMM:   4    -0.426386718066E+02    0.13644E-02   -0.20510E-03 13403   0.265E-01    0.192E-01
RMM:   5    -0.426381569615E+02    0.51485E-03   -0.44021E-04 10197   0.123E-01    0.768E-02
RMM:   6    -0.426381238638E+02    0.33098E-04   -0.17089E-04  9461   0.797E-02
   6 F= -.42638124E+02 E0= -.42638124E+02  d E =-.101955E-01  mag=     1.0000
       N       E                     dE             d eps       ncg     rms          rms(c)
DAV:   1    -0.426589206816E+02   -0.20764E-01   -0.85550E+00 13920   0.128E+01    0.119E+00
RMM:   2    -0.426605466271E+02   -0.16259E-02   -0.11647E-01 13825   0.195E+00    0.141E+00
RMM:   3    -0.426456742171E+02    0.14872E-01   -0.17339E-02 13826   0.716E-01    0.788E-01
RMM:   4    -0.426418426741E+02    0.38315E-02   -0.56364E-03 13828   0.435E-01    0.309E-01
RMM:   5    -0.426406284901E+02    0.12142E-02   -0.11347E-03 11662   0.192E-01    0.130E-01
RMM:   6    -0.426405912761E+02    0.37214E-04   -0.35332E-04  9855   0.114E-01
   7 F= -.42640591E+02 E0= -.42640591E+02  d E =-.126629E-01  mag=     1.0000
       N       E                     dE             d eps       ncg     rms          rms(c)
DAV:   1    -0.426647720106E+02   -0.24144E-01   -0.37781E+00 15024   0.927E+00    0.109E+00
RMM:   2    -0.426532417883E+02    0.11530E-01   -0.69996E-02 13824   0.156E+00    0.835E-01
RMM:   3    -0.426524452421E+02    0.79655E-03   -0.12666E-02 13831   0.602E-01    0.836E-01
RMM:   4    -0.426455309665E+02    0.69143E-02   -0.45149E-03 13799   0.396E-01    0.290E-01
RMM:   5    -0.426446343873E+02    0.89658E-03   -0.91062E-04 11279   0.181E-01    0.941E-02
RMM:   6    -0.426443511902E+02    0.28320E-03   -0.23714E-04  9678   0.921E-02
   8 F= -.42644351E+02 E0= -.42644351E+02  d E =-.375991E-02  mag=     1.0000
       N       E                     dE             d eps       ncg     rms          rms(c)
DAV:   1    -0.426467818478E+02   -0.21475E-02   -0.31947E-01 16656   0.273E+00    0.315E-01
RMM:   2    -0.426463967827E+02    0.38507E-03   -0.57558E-03 13824   0.452E-01    0.259E-01
RMM:   3    -0.426454804719E+02    0.91631E-03   -0.10343E-03 11045   0.179E-01    0.240E-01
RMM:   4    -0.426455273183E+02   -0.46846E-04   -0.46477E-04  9932   0.136E-01    0.864E-02
RMM:   5    -0.426453666652E+02    0.16065E-03   -0.93705E-05  7914   0.624E-02    0.335E-02
RMM:   6    -0.426454203379E+02   -0.53673E-04   -0.26359E-05  7283   0.300E-02
   9 F= -.42645420E+02 E0= -.42645420E+02  d E =-.482906E-02  mag=     1.0000
