 vasp.5.4.1 24Jun15 (build Jan 18 2016 12:20:36) complex                        
  
 executed on           IFC91_ompi date 2016.06.08  21:10:37
 running on   48 total cores
 distrk:  each k-point on   48 cores,    1 groups
 distr:  one band on NCORES_PER_BAND=   1 cores,   48 groups


--------------------------------------------------------------------------------------------------------


 INCAR:
 POTCAR:    PAW_PBE Li 17Jan2003                  
 POTCAR:   PAW_PBE Co 06Sep2000                   
 POTCAR:   PAW_PBE Ni 06Sep2000                   
 POTCAR:   PAW_PBE O 08Apr2002                    

 ----------------------------------------------------------------------------- 
|                                                                             |
|           W    W    AA    RRRRR   N    N  II  N    N   GGGG   !!!           |
|           W    W   A  A   R    R  NN   N  II  NN   N  G    G  !!!           |
|           W    W  A    A  R    R  N N  N  II  N N  N  G       !!!           |
|           W WW W  AAAAAA  RRRRR   N  N N  II  N  N N  G  GGG   !            |
|           WW  WW  A    A  R   R   N   NN  II  N   NN  G    G                |
|           W    W  A    A  R    R  N    N  II  N    N   GGGG   !!!           |
|                                                                             |
|      For optimal performance we recommend to set                            |
|        NCORE= 4 - approx SQRT( number of cores)                             |
|      NCORE specifies how many cores store one orbital (NPAR=cpu/NCORE).     |
|      This setting can  greatly improve the performance of VASP for DFT.     |
|      The default, NPAR=number of cores might be grossly inefficient         |
|      on modern multi-core architectures or massively parallel machines.     |
|      Do your own testing !!!!                                               |
|      Unfortunately you need to use the default for GW and RPA calculations. |
|      (for HF NCORE is supported but not extensively tested yet)             |
|                                                                             |
 ----------------------------------------------------------------------------- 

 POTCAR:    PAW_PBE Li 17Jan2003                  
   VRHFIN =Li: s1p0                                                             
   LEXCH  = PE                                                                  
   EATOM  =     5.3001 eV,     .3895 Ry                                         
                                                                                
   TITEL  = PAW_PBE Li 17Jan2003                                                
   LULTRA =        F    use ultrasoft PP ?                                      
   IUNSCR =        1    unscreen: 0-lin 1-nonlin 2-no                           
   RPACOR =    1.500    partial core radius                                     
   POMASS =    7.010; ZVAL   =    1.000    mass and valenz                      
   RCORE  =    2.050    outmost cutoff radius                                   
   RWIGS  =    2.600; RWIGS  =    1.376    wigner-seitz radius (au A)           
   ENMAX  =  140.000; ENMIN  =  100.000 eV                                      
   ICORE  =        2    local potential                                         
   LCOR   =        T    correct aug charges                                     
   LPAW   =        T    paw PP                                                  
   EAUG   =  331.638                                                            
   DEXC   =    -.010                                                            
   RMAX   =    4.263    core radius for proj-oper                               
   RAUG   =    1.300    factor for augmentation sphere                          
   RDEP   =    2.094    radius for radial grids                                 
   QCUT   =   -2.932; QGAM   =    5.865    optimization parameters              
                                                                                
   Description                                                                  
     l     E      TYP  RCUT    TYP  RCUT                                        
     0   .000     23  2.050                                                     
     0  2.000     23  2.050                                                     
     1   .000     23  2.050                                                     
     2   .000     23  2.050                                                     
  local pseudopotential read in
  partial core-charges read in
  atomic valenz-charges read in
  non local Contribution for L=           0  read in
    real space projection operators read in
  non local Contribution for L=           0  read in
    real space projection operators read in
  non local Contribution for L=           1  read in
    real space projection operators read in
    PAW grid and wavefunctions read in
 
   number of l-projection  operators is LMAX  =           3
   number of lm-projection operators is LMMAX =           5
 
 POTCAR:   PAW_PBE Co 06Sep2000                   
   VRHFIN =Co: d8 s1                                                            
   LEXCH  = PE                                                                  
   EATOM  =   813.5563 eV,   59.7947 Ry                                         
                                                                                
   TITEL  = PAW_PBE Co 06Sep2000                                                
   LULTRA =        F    use ultrasoft PP ?                                      
   IUNSCR =        1    unscreen: 0-lin 1-nonlin 2-no                           
   RPACOR =    2.000    partial core radius                                     
   POMASS =   58.933; ZVAL   =    9.000    mass and valenz                      
   RCORE  =    2.300    outmost cutoff radius                                   
   RWIGS  =    2.460; RWIGS  =    1.302    wigner-seitz radius (au A)           
   ENMAX  =  267.969; ENMIN  =  200.977 eV                                      
   RCLOC  =    1.697    cutoff for local pot                                    
   LCOR   =        T    correct aug charges                                     
   LPAW   =        T    paw PP                                                  
   EAUG   =  477.818                                                            
   DEXC   =    -.016                                                            
   RMAX   =    2.817    core radius for proj-oper                               
   RAUG   =    1.300    factor for augmentation sphere                          
   RDEP   =    2.393    radius for radial grids                                 
   QCUT   =   -4.438; QGAM   =    8.876    optimization parameters              
                                                                                
   Description                                                                  
     l     E      TYP  RCUT    TYP  RCUT                                        
     2   .000     23  2.300                                                     
     2   .000     23  2.300                                                     
     0   .000     23  2.300                                                     
     0   .000     23  2.300                                                     
     1  -.200     23  2.300                                                     
     1   .000     23  2.300                                                     
     3   .000      7   .000                                                     
  local pseudopotential read in
  partial core-charges read in
  atomic valenz-charges read in
  non local Contribution for L=           2  read in
    real space projection operators read in
  non local Contribution for L=           2  read in
    real space projection operators read in
  non local Contribution for L=           0  read in
    real space projection operators read in
  non local Contribution for L=           0  read in
    real space projection operators read in
  non local Contribution for L=           1  read in
    real space projection operators read in
  non local Contribution for L=           1  read in
    real space projection operators read in
    PAW grid and wavefunctions read in
 
   number of l-projection  operators is LMAX  =           6
   number of lm-projection operators is LMMAX =          18
 
 POTCAR:   PAW_PBE Ni 06Sep2000                   
   VRHFIN =Ni:                                                                  
   LEXCH  = PE                                                                  
   EATOM  =  1077.9025 eV,   79.2236 Ry                                         
                                                                                
   TITEL  = PAW_PBE Ni 06Sep2000                                                
   LULTRA =        F    use ultrasoft PP ?                                      
   IUNSCR =        1    unscreen: 0-lin 1-nonlin 2-no                           
   RPACOR =    2.000    partial core radius                                     
   POMASS =   58.690; ZVAL   =   10.000    mass and valenz                      
   RCORE  =    2.300    outmost cutoff radius                                   
   RWIGS  =    2.430; RWIGS  =    1.286    wigner-seitz radius (au A)           
   ENMAX  =  269.533; ENMIN  =  202.150 eV                                      
   RCLOC  =    1.681    cutoff for local pot                                    
   LCOR   =        T    correct aug charges                                     
   LPAW   =        T    paw PP                                                  
   EAUG   =  544.565                                                            
   DEXC   =    -.009                                                            
   RMAX   =    2.808    core radius for proj-oper                               
   RAUG   =    1.300    factor for augmentation sphere                          
   RDEP   =    2.390    radius for radial grids                                 
   QCUT   =   -4.451; QGAM   =    8.902    optimization parameters              
                                                                                
   Description                                                                  
     l     E      TYP  RCUT    TYP  RCUT                                        
     2   .000     23  2.300                                                     
     2   .000     23  2.300                                                     
     0   .000     23  2.300                                                     
     0   .000     23  2.300                                                     
     1  -.200     23  2.300                                                     
     1   .000     23  2.300                                                     
     3   .000      7   .000                                                     
  local pseudopotential read in
  partial core-charges read in
  atomic valenz-charges read in
  non local Contribution for L=           2  read in
    real space projection operators read in
  non local Contribution for L=           2  read in
    real space projection operators read in
  non local Contribution for L=           0  read in
    real space projection operators read in
  non local Contribution for L=           0  read in
    real space projection operators read in
  non local Contribution for L=           1  read in
    real space projection operators read in
  non local Contribution for L=           1  read in
    real space projection operators read in
    PAW grid and wavefunctions read in
 
   number of l-projection  operators is LMAX  =           6
   number of lm-projection operators is LMMAX =          18
 
 POTCAR:   PAW_PBE O 08Apr2002                    
   VRHFIN =O: s2p4                                                              
   LEXCH  = PE                                                                  
   EATOM  =   432.3788 eV,   31.7789 Ry                                         
                                                                                
   TITEL  = PAW_PBE O 08Apr2002                                                 
   LULTRA =        F    use ultrasoft PP ?                                      
   IUNSCR =        0    unscreen: 0-lin 1-nonlin 2-no                           
   RPACOR =     .000    partial core radius                                     
   POMASS =   16.000; ZVAL   =    6.000    mass and valenz                      
   RCORE  =    1.520    outmost cutoff radius                                   
   RWIGS  =    1.550; RWIGS  =     .820    wigner-seitz radius (au A)           
   ENMAX  =  400.000; ENMIN  =  300.000 eV                                      
   ICORE  =        2    local potential                                         
   LCOR   =        T    correct aug charges                                     
   LPAW   =        T    paw PP                                                  
   EAUG   =  605.392                                                            
   DEXC   =     .000                                                            
   RMAX   =    2.264    core radius for proj-oper                               
   RAUG   =    1.300    factor for augmentation sphere                          
   RDEP   =    1.550    radius for radial grids                                 
   QCUT   =   -5.520; QGAM   =   11.041    optimization parameters              
                                                                                
   Description                                                                  
     l     E      TYP  RCUT    TYP  RCUT                                        
     0   .000     23  1.200                                                     
     0  -.700     23  1.200                                                     
     1   .000     23  1.520                                                     
     1   .600     23  1.520                                                     
     2   .000      7  1.500                                                     
  local pseudopotential read in
  atomic valenz-charges read in
  non local Contribution for L=           0  read in
    real space projection operators read in
  non local Contribution for L=           0  read in
    real space projection operators read in
  non local Contribution for L=           1  read in
    real space projection operators read in
  non local Contribution for L=           1  read in
    real space projection operators read in
    PAW grid and wavefunctions read in
 
   number of l-projection  operators is LMAX  =           4
   number of lm-projection operators is LMMAX =           8
 

 ----------------------------------------------------------------------------- 
|                                                                             |
|  ADVICE TO THIS USER RUNNING 'VASP/VAMP'   (HEAR YOUR MASTER'S VOICE ...):  |
|                                                                             |
|      You have a (more or less) 'small supercell' and for smaller cells      |
|      it is recommended  to use the reciprocal-space projection scheme!      |
|      The real space optimization is not  efficient for small cells and it   |
|      is also less accurate ...                                              |
|      Therefore set LREAL=.FALSE. in the  INCAR file                         |
|                                                                             |
 ----------------------------------------------------------------------------- 

 Optimization of the real space projectors (new method)

 maximal supplied QI-value         = 18.33
 optimisation between [QCUT,QGAM] = [ 11.55, 23.28] = [ 37.34,151.76] Ry 
 Optimized for a Real-space Cutoff    1.14 Angstroem

   l    n(q)    QCUT    max X(q) W(low)/X(q) W(high)/X(q)  e(spline) 
   0      8    11.548    30.666    0.12E-04    0.21E-04    0.93E-08
   0      8    11.548    39.284    0.15E-03    0.55E-04    0.54E-07
   1      7    11.548     4.214    0.21E-03    0.27E-03    0.42E-07
 Optimization of the real space projectors (new method)

 maximal supplied QI-value         = 16.25
 optimisation between [QCUT,QGAM] = [ 11.54, 23.24] = [ 37.28,151.24] Ry 
 Optimized for a Real-space Cutoff    1.53 Angstroem

   l    n(q)    QCUT    max X(q) W(low)/X(q) W(high)/X(q)  e(spline) 
   2     10    11.539     4.599    0.83E-05    0.15E-04    0.45E-07
   2     10    11.539    18.158    0.10E-03    0.14E-03    0.24E-06
   0     11    11.539    15.740    0.19E-04    0.12E-05    0.17E-07
   0     11    11.539    47.662    0.48E-04    0.15E-04    0.31E-06
   1     10    11.539     5.777    0.11E-04    0.46E-05    0.25E-07
   1     10    11.539     8.007    0.46E-04    0.29E-04    0.11E-06
 Optimization of the real space projectors (new method)

 maximal supplied QI-value         = 16.25
 optimisation between [QCUT,QGAM] = [ 11.54, 23.24] = [ 37.28,151.24] Ry 
 Optimized for a Real-space Cutoff    1.49 Angstroem

   l    n(q)    QCUT    max X(q) W(low)/X(q) W(high)/X(q)  e(spline) 
   2      9    11.539     4.811    0.20E-04    0.14E-04    0.45E-07
   2      9    11.539    15.146    0.24E-03    0.12E-03    0.20E-06
   0     10    11.539    14.357    0.18E-04    0.12E-05    0.14E-07
   0     10    11.539    43.282    0.39E-04    0.17E-04    0.23E-06
   1     10    11.539     5.514    0.99E-05    0.13E-04    0.19E-07
   1     10    11.539     7.697    0.38E-04    0.79E-04    0.91E-07
 Optimization of the real space projectors (new method)

 maximal supplied QI-value         = 24.76
 optimisation between [QCUT,QGAM] = [ 11.64, 23.27] = [ 37.91,151.63] Ry 
 Optimized for a Real-space Cutoff    1.08 Angstroem

   l    n(q)    QCUT    max X(q) W(low)/X(q) W(high)/X(q)  e(spline) 
   0      7    11.635     4.192    0.54E-04    0.80E-04    0.26E-07
   0      7    11.635     8.473    0.70E-04    0.40E-03    0.21E-06
   1      7    11.635     2.474    0.39E-04    0.14E-03    0.23E-07
   1      7    11.635     3.912    0.25E-03    0.37E-03    0.22E-06
  PAW_PBE Li 17Jan2003                  :
 energy of atom  1       EATOM=   -5.3001
 kinetic energy error for atom=    0.0000 (will be added to EATOM!!)
 PAW_PBE Co 06Sep2000                   :
 energy of atom  2       EATOM= -813.5563
 kinetic energy error for atom=    0.0028 (will be added to EATOM!!)
 PAW_PBE Ni 06Sep2000                   :
 energy of atom  3       EATOM=-1077.9025
 kinetic energy error for atom=    0.0030 (will be added to EATOM!!)
 PAW_PBE O 08Apr2002                    :
 energy of atom  4       EATOM= -432.3788
 kinetic energy error for atom=    0.0208 (will be added to EATOM!!)
 
 
 POSCAR: Li2 Co1 Ni1 O4                          
  positions in direct lattice
  No initial velocities read in
 exchange correlation table for  LEXCH =        8
   RHO(1)=    0.500       N(1)  =     2000
   RHO(2)=  100.500       N(2)  =     4000
 


--------------------------------------------------------------------------------------------------------


 ion  position               nearest neighbor table
   1  0.000  0.000  0.000-   5 2.05   7 2.05   6 2.06   8 2.06   6 2.06   8 2.06   2 2.89   2 2.89
                             2 2.89   2 2.89   3 2.91   3 2.91   4 2.93   4 2.93   4 2.93   4 2.93
   2  0.500  0.500  0.000-   6 2.05   8 2.05   7 2.06   5 2.06   5 2.06   7 2.06   1 2.89   1 2.89
                             1 2.89   1 2.89   4 2.91   4 2.91   3 2.93   3 2.93   3 2.93   3 2.93
   3  0.000  0.500  0.500-   5 2.05   7 2.05   6 2.06   8 2.06   6 2.06   8 2.06   4 2.89   4 2.89
                             4 2.89   4 2.89   1 2.91   1 2.91   2 2.93   2 2.93   2 2.93   2 2.93
   4  0.500  0.000  0.500-   6 2.05   8 2.05   7 2.06   5 2.06   5 2.06   7 2.06   3 2.89   3 2.89
                             3 2.89   3 2.89   2 2.91   2 2.91   1 2.93   1 2.93   1 2.93   1 2.93
   5  0.000  0.750  0.750-   1 2.05   3 2.05   2 2.06   4 2.06   2 2.06   4 2.06
   6  0.500  0.750  0.250-   2 2.05   4 2.05   3 2.06   1 2.06   1 2.06   3 2.06
   7  0.000  0.250  0.250-   1 2.05   3 2.05   2 2.06   4 2.06   2 2.06   4 2.06
   8  0.500  0.250  0.750-   2 2.05   4 2.05   3 2.06   1 2.06   1 2.06   3 2.06
 
  LATTYP: Found a simple monoclinic cell.
 ALAT       =     8.2146770600
 B/A-ratio  =     0.3552178593
 C/A-ratio  =     1.5361420883
 COS(beta)  =    -0.9729755608
  
  Lattice vectors:
  
 A1 = (   0.0000000000,  -6.6756000000,  -4.7872000000)
 A2 = (  -2.9180000000,   0.0000000000,   0.0000000000)
 A3 = (   0.0000000000,  11.6756000000,   4.7872000000)


Analysis of symmetry for initial positions (statically):
=====================================================================
 Subroutine PRICEL returns:
 Original cell was already a primitive cell.
 

 Routine SETGRP: Setting up the symmetry group for a 
 simple monoclinic supercell.


 Subroutine GETGRP returns: Found  4 space group operations
 (whereof  4 operations were pure point group operations)
 out of a pool of  4 trial point group operations.


The static configuration has the point symmetry C_2h.


Analysis of symmetry for dynamics (positions and initial velocities):
=====================================================================
 Subroutine PRICEL returns:
 Original cell was already a primitive cell.
 

 Routine SETGRP: Setting up the symmetry group for a 
 simple monoclinic supercell.


 Subroutine GETGRP returns: Found  4 space group operations
 (whereof  4 operations were pure point group operations)
 out of a pool of  4 trial point group operations.


The dynamic configuration has the point symmetry C_2h.


Analysis of structural, dynamic, and magnetic symmetry:
=====================================================================
 Subroutine PRICEL returns:
 Original cell was already a primitive cell.
 

 Routine SETGRP: Setting up the symmetry group for a 
 simple monoclinic supercell.


 Subroutine GETGRP returns: Found  4 space group operations
 (whereof  4 operations were pure point group operations)
 out of a pool of  4 trial point group operations.


The magnetic configuration has the point symmetry C_2h.


 Subroutine INISYM returns: Found  4 space group operations
 (whereof  4 operations are pure point group operations),
 and found     1 'primitive' translations

 
 
 KPOINTS: pymatgen generated KPOINTS with grid den

Automatic generation of k-mesh.
Space group operators:
 irot       det(A)        alpha          n_x          n_y          n_z        tau_x        tau_y        tau_z
    1     1.000000     0.000001     1.000000     0.000000     0.000000     0.000000     0.000000     0.000000
    2    -1.000000     0.000001     1.000000     0.000000     0.000000     0.000000     0.000000     0.000000
    3     1.000000   180.000000     1.000000     0.000000     0.000000     0.000000     0.000000     0.000000
    4    -1.000000   180.000000     1.000000     0.000000     0.000000     0.000000     0.000000     0.000000
 
 Subroutine IBZKPT returns following result:
 ===========================================
 
 Found     72 irreducible k-points:
 
 Following reciprocal coordinates:
            Coordinates               Weight
  0.062500  0.083333  0.083333      4.000000
  0.187500  0.083333  0.083333      4.000000
  0.312500  0.083333  0.083333      4.000000
  0.437500  0.083333  0.083333      4.000000
  0.062500  0.250000  0.083333      4.000000
  0.187500  0.250000  0.083333      4.000000
  0.312500  0.250000  0.083333      4.000000
  0.437500  0.250000  0.083333      4.000000
  0.062500  0.416667  0.083333      4.000000
  0.187500  0.416667  0.083333      4.000000
  0.312500  0.416667  0.083333      4.000000
  0.437500  0.416667  0.083333      4.000000
  0.062500 -0.416667  0.083333      4.000000
  0.187500 -0.416667  0.083333      4.000000
  0.312500 -0.416667  0.083333      4.000000
  0.437500 -0.416667  0.083333      4.000000
  0.062500 -0.250000  0.083333      4.000000
  0.187500 -0.250000  0.083333      4.000000
  0.312500 -0.250000  0.083333      4.000000
  0.437500 -0.250000  0.083333      4.000000
  0.062500 -0.083333  0.083333      4.000000
  0.187500 -0.083333  0.083333      4.000000
  0.312500 -0.083333  0.083333      4.000000
  0.437500 -0.083333  0.083333      4.000000
  0.062500  0.083333  0.250000      4.000000
  0.187500  0.083333  0.250000      4.000000
  0.312500  0.083333  0.250000      4.000000
  0.437500  0.083333  0.250000      4.000000
  0.062500  0.250000  0.250000      4.000000
  0.187500  0.250000  0.250000      4.000000
  0.312500  0.250000  0.250000      4.000000
  0.437500  0.250000  0.250000      4.000000
  0.062500  0.416667  0.250000      4.000000
  0.187500  0.416667  0.250000      4.000000
  0.312500  0.416667  0.250000      4.000000
  0.437500  0.416667  0.250000      4.000000
  0.062500 -0.416667  0.250000      4.000000
  0.187500 -0.416667  0.250000      4.000000
  0.312500 -0.416667  0.250000      4.000000
  0.437500 -0.416667  0.250000      4.000000
  0.062500 -0.250000  0.250000      4.000000
  0.187500 -0.250000  0.250000      4.000000
  0.312500 -0.250000  0.250000      4.000000
  0.437500 -0.250000  0.250000      4.000000
  0.062500 -0.083333  0.250000      4.000000
  0.187500 -0.083333  0.250000      4.000000
  0.312500 -0.083333  0.250000      4.000000
  0.437500 -0.083333  0.250000      4.000000
  0.062500  0.083333  0.416667      4.000000
  0.187500  0.083333  0.416667      4.000000
  0.312500  0.083333  0.416667      4.000000
  0.437500  0.083333  0.416667      4.000000
  0.062500  0.250000  0.416667      4.000000
  0.187500  0.250000  0.416667      4.000000
  0.312500  0.250000  0.416667      4.000000
  0.437500  0.250000  0.416667      4.000000
  0.062500  0.416667  0.416667      4.000000
  0.187500  0.416667  0.416667      4.000000
  0.312500  0.416667  0.416667      4.000000
  0.437500  0.416667  0.416667      4.000000
  0.062500 -0.416667  0.416667      4.000000
  0.187500 -0.416667  0.416667      4.000000
  0.312500 -0.416667  0.416667      4.000000
  0.437500 -0.416667  0.416667      4.000000
  0.062500 -0.250000  0.416667      4.000000
  0.187500 -0.250000  0.416667      4.000000
  0.312500 -0.250000  0.416667      4.000000
  0.437500 -0.250000  0.416667      4.000000
  0.062500 -0.083333  0.416667      4.000000
  0.187500 -0.083333  0.416667      4.000000
  0.312500 -0.083333  0.416667      4.000000
  0.437500 -0.083333  0.416667      4.000000
 
 Following cartesian coordinates:
            Coordinates               Weight
  0.021419  0.016667  0.011574      4.000000
  0.064256  0.016667  0.011574      4.000000
  0.107094  0.016667  0.011574      4.000000
  0.149931  0.016667  0.011574      4.000000
  0.021419  0.050000 -0.000093      4.000000
  0.064256  0.050000 -0.000093      4.000000
  0.107094  0.050000 -0.000093      4.000000
  0.149931  0.050000 -0.000093      4.000000
  0.021419  0.083333 -0.011761      4.000000
  0.064256  0.083333 -0.011761      4.000000
  0.107094  0.083333 -0.011761      4.000000
  0.149931  0.083333 -0.011761      4.000000
  0.021419 -0.083333  0.046576      4.000000
  0.064256 -0.083333  0.046576      4.000000
  0.107094 -0.083333  0.046576      4.000000
  0.149931 -0.083333  0.046576      4.000000
  0.021419 -0.050000  0.034908      4.000000
  0.064256 -0.050000  0.034908      4.000000
  0.107094 -0.050000  0.034908      4.000000
  0.149931 -0.050000  0.034908      4.000000
  0.021419 -0.016667  0.023241      4.000000
  0.064256 -0.016667  0.023241      4.000000
  0.107094 -0.016667  0.023241      4.000000
  0.149931 -0.016667  0.023241      4.000000
  0.021419  0.016667  0.046389      4.000000
  0.064256  0.016667  0.046389      4.000000
  0.107094  0.016667  0.046389      4.000000
  0.149931  0.016667  0.046389      4.000000
  0.021419  0.050000  0.034722      4.000000
  0.064256  0.050000  0.034722      4.000000
  0.107094  0.050000  0.034722      4.000000
  0.149931  0.050000  0.034722      4.000000
  0.021419  0.083333  0.023055      4.000000
  0.064256  0.083333  0.023055      4.000000
  0.107094  0.083333  0.023055      4.000000
  0.149931  0.083333  0.023055      4.000000
  0.021419 -0.083333  0.081391      4.000000
  0.064256 -0.083333  0.081391      4.000000
  0.107094 -0.083333  0.081391      4.000000
  0.149931 -0.083333  0.081391      4.000000
  0.021419 -0.050000  0.069723      4.000000
  0.064256 -0.050000  0.069723      4.000000
  0.107094 -0.050000  0.069723      4.000000
  0.149931 -0.050000  0.069723      4.000000
  0.021419 -0.016667  0.058056      4.000000
  0.064256 -0.016667  0.058056      4.000000
  0.107094 -0.016667  0.058056      4.000000
  0.149931 -0.016667  0.058056      4.000000
  0.021419  0.016667  0.081204      4.000000
  0.064256  0.016667  0.081204      4.000000
  0.107094  0.016667  0.081204      4.000000
  0.149931  0.016667  0.081204      4.000000
  0.021419  0.050000  0.069537      4.000000
  0.064256  0.050000  0.069537      4.000000
  0.107094  0.050000  0.069537      4.000000
  0.149931  0.050000  0.069537      4.000000
  0.021419  0.083333  0.057870      4.000000
  0.064256  0.083333  0.057870      4.000000
  0.107094  0.083333  0.057870      4.000000
  0.149931  0.083333  0.057870      4.000000
  0.021419 -0.083333  0.116206      4.000000
  0.064256 -0.083333  0.116206      4.000000
  0.107094 -0.083333  0.116206      4.000000
  0.149931 -0.083333  0.116206      4.000000
  0.021419 -0.050000  0.104538      4.000000
  0.064256 -0.050000  0.104538      4.000000
  0.107094 -0.050000  0.104538      4.000000
  0.149931 -0.050000  0.104538      4.000000
  0.021419 -0.016667  0.092871      4.000000
  0.064256 -0.016667  0.092871      4.000000
  0.107094 -0.016667  0.092871      4.000000
  0.149931 -0.016667  0.092871      4.000000
 
 TETIRR: Found    820 inequivalent tetrahedra from     1728


--------------------------------------------------------------------------------------------------------




 Dimension of arrays:
   k-points           NKPTS =     72   k-points in BZ     NKDIM =     72   number of bands    NBANDS=     48
   number of dos      NEDOS =    301   number of ions     NIONS =      8
   non local maximal  LDIM  =      6   non local SUM 2l+1 LMDIM =     18
   total plane-waves  NPLWV =  38400
   max r-space proj   IRMAX =   8360   max aug-charges    IRDMAX=  21880
   dimension x,y,z NGX =    24 NGY =   40 NGZ =   40
   dimension x,y,z NGXF=    48 NGYF=   80 NGZF=   80
   support grid    NGXF=    48 NGYF=   80 NGZF=   80
   ions per type =               2   1   1   4
 NGX,Y,Z   is equivalent  to a cutoff of  13.67, 13.30, 13.11 a.u.
 NGXF,Y,Z  is equivalent  to a cutoff of  27.35, 26.60, 26.22 a.u.


 I would recommend the setting:
   dimension x,y,z NGX =    22 NGY =   37 NGZ =   38
 SYSTEM =  unknown system                          
 POSCAR =  Li2 Co1 Ni1 O4                          

 Startparameter for this run:
   NWRITE =      2    write-flag & timer
   PREC   = accura    normal or accurate (medium, high low for compatibility)
   ISTART =      0    job   : 0-new  1-cont  2-samecut
   ICHARG =      1    charge: 1-file 2-atom 10-const
   ISPIN  =      2    spin polarized calculation?
   LNONCOLLINEAR =      F non collinear calculations
   LSORBIT =      F    spin-orbit coupling
   INIWAV =      1    electr: 0-lowe 1-rand  2-diag
   LASPH  =      F    aspherical Exc in radial PAW
   METAGGA=      F    non-selfconsistent MetaGGA calc.

 Electronic Relaxation 1
   ENCUT  =  520.0 eV  38.22 Ry    6.18 a.u.   5.43  9.30  9.43*2*pi/ulx,y,z
   ENINI  =  520.0     initial cutoff
   ENAUG  =  605.4 eV  augmentation charge cutoff
   NELM   =    100;   NELMIN=  6; NELMDL=  0     # of ELM steps 
   EDIFF  = 0.4E-03   stopping-criterion for ELM
   LREAL  =      T    real-space projection
   NLSPLINE    = F    spline interpolate recip. space projectors
   LCOMPAT=      F    compatible to vasp.4.4
   GGA_COMPAT  = T    GGA compatible to vasp.4.4-vasp.4.6
   LMAXPAW     = -100 max onsite density
   LMAXMIX     =    4 max onsite mixed and CHGCAR
   VOSKOWN=      0    Vosko Wilk Nusair interpolation
   ROPT   =   -0.00025  -0.00025  -0.00025  -0.00025
 Ionic relaxation
   EDIFFG = 0.4E-02   stopping-criterion for IOM
   NSW    =     99    number of steps for IOM
   NBLOCK =      1;   KBLOCK =     99    inner block; outer block 
   IBRION =      2    ionic relax: 0-MD 1-quasi-New 2-CG
   NFREE  =      1    steps in history (QN), initial steepest desc. (CG)
   ISIF   =      3    stress and relaxation
   IWAVPR =     11    prediction:  0-non 1-charg 2-wave 3-comb
   ISYM   =      2    0-nonsym 1-usesym 2-fastsym
   LCORR  =      T    Harris-Foulkes like correction to forces

   POTIM  = 0.5000    time-step for ionic-motion
   TEIN   =    0.0    initial temperature
   TEBEG  =    0.0;   TEEND  =   0.0 temperature during run
   SMASS  =  -3.00    Nose mass-parameter (am)
   estimated Nose-frequenzy (Omega)   =  0.10E-29 period in steps =****** mass=  -0.195E-27a.u.
   SCALEE = 1.0000    scale energy and forces
   NPACO  =    256;   APACO  = 16.0  distance and # of slots for P.C.
   PSTRESS=    0.0 pullay stress

  Mass of Ions in am
   POMASS =   7.01 58.93 58.69 16.00
  Ionic Valenz
   ZVAL   =   1.00  9.00 10.00  6.00
  Atomic Wigner-Seitz radii
   RWIGS  =  -1.00 -1.00 -1.00 -1.00
  virtual crystal weights 
   VCA    =   1.00  1.00  1.00  1.00
   NELECT =      45.0000    total number of electrons
   NUPDOWN=      -1.0000    fix difference up-down

 DOS related values:
   EMIN   =  10.00;   EMAX   =-10.00  energy-range for DOS
   EFERMI =   0.00
   ISMEAR =    -5;   SIGMA  =   0.05  broadening in eV -4-tet -1-fermi 0-gaus

 Electronic relaxation 2 (details)
   IALGO  =     68    algorithm
   LDIAG  =      T    sub-space diagonalisation (order eigenvalues)
   LSUBROT=      F    optimize rotation matrix (better conditioning)
   TURBO    =      0    0=normal 1=particle mesh
   IRESTART =      0    0=no restart 2=restart with 2 vectors
   NREBOOT  =      0    no. of reboots
   NMIN     =      0    reboot dimension
   EREF     =   0.00    reference energy to select bands
   IMIX   =      4    mixing-type and parameters
     AMIX     =   0.40;   BMIX     =  1.00
     AMIX_MAG =   1.60;   BMIX_MAG =  1.00
     AMIN     =   0.10
     WC   =   100.;   INIMIX=   1;  MIXPRE=   1;  MAXMIX= -45

 Intra band minimization:
   WEIMIN = 0.0010     energy-eigenvalue tresh-hold
   EBREAK =  0.21E-05  absolut break condition
   DEPER  =   0.30     relativ break condition  

   TIME   =   0.40     timestep for ELM

  volume/ion in A,a.u.               =       8.73        58.92
  Fermi-wavevector in a.u.,A,eV,Ry     =   1.413948  2.671974 27.201426  1.999248
  Thomas-Fermi vector in A             =   2.535541
 
 Write flags
   LWAVE  =      F    write WAVECAR
   LCHARG =      T    write CHGCAR
   LVTOT  =      F    write LOCPOT, total local potential
   LVHAR  =      F    write LOCPOT, Hartree potential only
   LELF   =      F    write electronic localiz. function (ELF)
   LORBIT =     11    0 simple, 1 ext, 2 COOP (PROOUT)


 Dipole corrections
   LMONO  =      F    monopole corrections only (constant potential shift)
   LDIPOL =      F    correct potential (dipole corrections)
   IDIPOL =      0    1-x, 2-y, 3-z, 4-all directions 
   EPSILON=  1.0000000 bulk dielectric constant

 LDA+U is selected, type is set to LDAUTYPE =  2
   angular momentum for each species LDAUL =     0    2    2    0
   U (eV)           for each species LDAUU =   0.0  3.4  6.0  0.0
   J (eV)           for each species LDAUJ =   0.0  0.0  0.0  0.0
 Exchange correlation treatment:
   GGA     =    --    GGA type
   LEXCH   =     8    internal setting for exchange type
   VOSKOWN=      0    Vosko Wilk Nusair interpolation
   LHFCALC =     F    Hartree Fock is set to
   LHFONE  =     F    Hartree Fock one center treatment
   AEXX    =    0.0000 exact exchange contribution

 Linear response parameters
   LEPSILON=     F    determine dielectric tensor
   LRPA    =     F    only Hartree local field effects (RPA)
   LNABLA  =     F    use nabla operator in PAW spheres
   LVEL    =     F    velocity operator in full k-point grid
   LINTERFAST=   F  fast interpolation
   KINTER  =     0    interpolate to denser k-point grid
   CSHIFT  =0.1000    complex shift for real part using Kramers Kronig
   OMEGAMAX=  -1.0    maximum frequency
   DEG_THRESHOLD= 0.2000000E-02 threshold for treating states as degnerate
   RTIME   =    0.100 relaxation time in fs

 Orbital magnetization related:
   ORBITALMAG=     F  switch on orbital magnetization
   LCHIMAG   =     F  perturbation theory with respect to B field
   DQ        =  0.001000  dq finite difference perturbation B field



--------------------------------------------------------------------------------------------------------


 conjugate gradient relaxation of ions
 charge density and potential will be updated during run
 spin polarized calculation
 RMM-DIIS sequential band-by-band and
  variant of blocked Davidson during initial phase
 perform sub-space diagonalisation
    before iterative eigenvector-optimisation
 modified Broyden-mixing scheme, WC =      100.0
 initial mixing is a Kerker type mixing with AMIX =  0.4000 and BMIX =      1.0000
 Hartree-type preconditioning will be used
 using additional bands           25
 real space projection scheme for non local part
 use partial core corrections
 calculate Harris-corrections to forces 
   (improved forces if not selfconsistent)
 use gradient corrections 
 use of overlap-Matrix (Vanderbilt PP)
 Fermi weights with tetrahedron method with Bloechl corrections


--------------------------------------------------------------------------------------------------------


  energy-cutoff  :      520.00
  volume of cell :       69.85
      direct lattice vectors                 reciprocal lattice vectors
     2.918000000  0.000000000  0.000000000     0.342700480  0.000000000  0.000000000
     0.000000000  5.000000000  0.000000000     0.000000000  0.200000000 -0.070003342
     0.000000000  1.675600000  4.787200000     0.000000000  0.000000000  0.208890374

  length of vectors
     2.918000000  5.000000000  5.071973896     0.342700480  0.211897305  0.208890374


 
 k-points in units of 2pi/SCALE and weight: pymatgen generated KPOINTS with grid den
   0.02141878  0.01666667  0.01157392       0.014
   0.06425634  0.01666667  0.01157392       0.014
   0.10709390  0.01666667  0.01157392       0.014
   0.14993146  0.01666667  0.01157392       0.014
   0.02141878  0.05000000 -0.00009330       0.014
   0.06425634  0.05000000 -0.00009330       0.014
   0.10709390  0.05000000 -0.00009330       0.014
   0.14993146  0.05000000 -0.00009330       0.014
   0.02141878  0.08333333 -0.01176053       0.014
   0.06425634  0.08333333 -0.01176053       0.014
   0.10709390  0.08333333 -0.01176053       0.014
   0.14993146  0.08333333 -0.01176053       0.014
   0.02141878 -0.08333333  0.04657559       0.014
   0.06425634 -0.08333333  0.04657559       0.014
   0.10709390 -0.08333333  0.04657559       0.014
   0.14993146 -0.08333333  0.04657559       0.014
   0.02141878 -0.05000000  0.03490837       0.014
   0.06425634 -0.05000000  0.03490837       0.014
   0.10709390 -0.05000000  0.03490837       0.014
   0.14993146 -0.05000000  0.03490837       0.014
   0.02141878 -0.01666667  0.02324114       0.014
   0.06425634 -0.01666667  0.02324114       0.014
   0.10709390 -0.01666667  0.02324114       0.014
   0.14993146 -0.01666667  0.02324114       0.014
   0.02141878  0.01666667  0.04638898       0.014
   0.06425634  0.01666667  0.04638898       0.014
   0.10709390  0.01666667  0.04638898       0.014
   0.14993146  0.01666667  0.04638898       0.014
   0.02141878  0.05000000  0.03472176       0.014
   0.06425634  0.05000000  0.03472176       0.014
   0.10709390  0.05000000  0.03472176       0.014
   0.14993146  0.05000000  0.03472176       0.014
   0.02141878  0.08333333  0.02305453       0.014
   0.06425634  0.08333333  0.02305453       0.014
   0.10709390  0.08333333  0.02305453       0.014
   0.14993146  0.08333333  0.02305453       0.014
   0.02141878 -0.08333333  0.08139065       0.014
   0.06425634 -0.08333333  0.08139065       0.014
   0.10709390 -0.08333333  0.08139065       0.014
   0.14993146 -0.08333333  0.08139065       0.014
   0.02141878 -0.05000000  0.06972343       0.014
   0.06425634 -0.05000000  0.06972343       0.014
   0.10709390 -0.05000000  0.06972343       0.014
   0.14993146 -0.05000000  0.06972343       0.014
   0.02141878 -0.01666667  0.05805621       0.014
   0.06425634 -0.01666667  0.05805621       0.014
   0.10709390 -0.01666667  0.05805621       0.014
   0.14993146 -0.01666667  0.05805621       0.014
   0.02141878  0.01666667  0.08120404       0.014
   0.06425634  0.01666667  0.08120404       0.014
   0.10709390  0.01666667  0.08120404       0.014
   0.14993146  0.01666667  0.08120404       0.014
   0.02141878  0.05000000  0.06953682       0.014
   0.06425634  0.05000000  0.06953682       0.014
   0.10709390  0.05000000  0.06953682       0.014
   0.14993146  0.05000000  0.06953682       0.014
   0.02141878  0.08333333  0.05786960       0.014
   0.06425634  0.08333333  0.05786960       0.014
   0.10709390  0.08333333  0.05786960       0.014
   0.14993146  0.08333333  0.05786960       0.014
   0.02141878 -0.08333333  0.11620572       0.014
   0.06425634 -0.08333333  0.11620572       0.014
   0.10709390 -0.08333333  0.11620572       0.014
   0.14993146 -0.08333333  0.11620572       0.014
   0.02141878 -0.05000000  0.10453849       0.014
   0.06425634 -0.05000000  0.10453849       0.014
   0.10709390 -0.05000000  0.10453849       0.014
   0.14993146 -0.05000000  0.10453849       0.014
   0.02141878 -0.01666667  0.09287127       0.014
   0.06425634 -0.01666667  0.09287127       0.014
   0.10709390 -0.01666667  0.09287127       0.014
   0.14993146 -0.01666667  0.09287127       0.014
 
 k-points in reciprocal lattice and weights: pymatgen generated KPOINTS with grid den
   0.06250000  0.08333333  0.08333333       0.014
   0.18750000  0.08333333  0.08333333       0.014
   0.31250000  0.08333333  0.08333333       0.014
   0.43750000  0.08333333  0.08333333       0.014
   0.06250000  0.25000000  0.08333333       0.014
   0.18750000  0.25000000  0.08333333       0.014
   0.31250000  0.25000000  0.08333333       0.014
   0.43750000  0.25000000  0.08333333       0.014
   0.06250000  0.41666667  0.08333333       0.014
   0.18750000  0.41666667  0.08333333       0.014
   0.31250000  0.41666667  0.08333333       0.014
   0.43750000  0.41666667  0.08333333       0.014
   0.06250000 -0.41666667  0.08333333       0.014
   0.18750000 -0.41666667  0.08333333       0.014
   0.31250000 -0.41666667  0.08333333       0.014
   0.43750000 -0.41666667  0.08333333       0.014
   0.06250000 -0.25000000  0.08333333       0.014
   0.18750000 -0.25000000  0.08333333       0.014
   0.31250000 -0.25000000  0.08333333       0.014
   0.43750000 -0.25000000  0.08333333       0.014
   0.06250000 -0.08333333  0.08333333       0.014
   0.18750000 -0.08333333  0.08333333       0.014
   0.31250000 -0.08333333  0.08333333       0.014
   0.43750000 -0.08333333  0.08333333       0.014
   0.06250000  0.08333333  0.25000000       0.014
   0.18750000  0.08333333  0.25000000       0.014
   0.31250000  0.08333333  0.25000000       0.014
   0.43750000  0.08333333  0.25000000       0.014
   0.06250000  0.25000000  0.25000000       0.014
   0.18750000  0.25000000  0.25000000       0.014
   0.31250000  0.25000000  0.25000000       0.014
   0.43750000  0.25000000  0.25000000       0.014
   0.06250000  0.41666667  0.25000000       0.014
   0.18750000  0.41666667  0.25000000       0.014
   0.31250000  0.41666667  0.25000000       0.014
   0.43750000  0.41666667  0.25000000       0.014
   0.06250000 -0.41666667  0.25000000       0.014
   0.18750000 -0.41666667  0.25000000       0.014
   0.31250000 -0.41666667  0.25000000       0.014
   0.43750000 -0.41666667  0.25000000       0.014
   0.06250000 -0.25000000  0.25000000       0.014
   0.18750000 -0.25000000  0.25000000       0.014
   0.31250000 -0.25000000  0.25000000       0.014
   0.43750000 -0.25000000  0.25000000       0.014
   0.06250000 -0.08333333  0.25000000       0.014
   0.18750000 -0.08333333  0.25000000       0.014
   0.31250000 -0.08333333  0.25000000       0.014
   0.43750000 -0.08333333  0.25000000       0.014
   0.06250000  0.08333333  0.41666667       0.014
   0.18750000  0.08333333  0.41666667       0.014
   0.31250000  0.08333333  0.41666667       0.014
   0.43750000  0.08333333  0.41666667       0.014
   0.06250000  0.25000000  0.41666667       0.014
   0.18750000  0.25000000  0.41666667       0.014
   0.31250000  0.25000000  0.41666667       0.014
   0.43750000  0.25000000  0.41666667       0.014
   0.06250000  0.41666667  0.41666667       0.014
   0.18750000  0.41666667  0.41666667       0.014
   0.31250000  0.41666667  0.41666667       0.014
   0.43750000  0.41666667  0.41666667       0.014
   0.06250000 -0.41666667  0.41666667       0.014
   0.18750000 -0.41666667  0.41666667       0.014
   0.31250000 -0.41666667  0.41666667       0.014
   0.43750000 -0.41666667  0.41666667       0.014
   0.06250000 -0.25000000  0.41666667       0.014
   0.18750000 -0.25000000  0.41666667       0.014
   0.31250000 -0.25000000  0.41666667       0.014
   0.43750000 -0.25000000  0.41666667       0.014
   0.06250000 -0.08333333  0.41666667       0.014
   0.18750000 -0.08333333  0.41666667       0.014
   0.31250000 -0.08333333  0.41666667       0.014
   0.43750000 -0.08333333  0.41666667       0.014
 
 position of ions in fractional coordinates (direct lattice) 
   0.00000000  0.00000000  0.00000000
   0.50000000  0.50000000  0.00000000
   0.00000000  0.50000000  0.50000000
   0.50000000  0.00000000  0.50000000
   0.00000000  0.75000000  0.75000000
   0.50000000  0.75000000  0.25000000
   0.00000000  0.25000000  0.25000000
   0.50000000  0.25000000  0.75000000
 
 position of ions in cartesian coordinates  (Angst):
   0.00000000  0.00000000  0.00000000
   1.45900000  2.50000000  0.00000000
   0.00000000  3.33780000  2.39360000
   1.45900000  0.83780000  2.39360000
   0.00000000  5.00670000  3.59040000
   1.45900000  4.16890000  1.19680000
   0.00000000  1.66890000  1.19680000
   1.45900000  2.50670000  3.59040000
 


--------------------------------------------------------------------------------------------------------


 k-point  1 :   0.0625 0.0833 0.0833  plane waves:    1884
 k-point  2 :   0.1875 0.0833 0.0833  plane waves:    1879
 k-point  3 :   0.3125 0.0833 0.0833  plane waves:    1874
 k-point  4 :   0.4375 0.0833 0.0833  plane waves:    1877
 k-point  5 :   0.0625 0.2500 0.0833  plane waves:    1886
 k-point  6 :   0.1875 0.2500 0.0833  plane waves:    1884
 k-point  7 :   0.3125 0.2500 0.0833  plane waves:    1879
 k-point  8 :   0.4375 0.2500 0.0833  plane waves:    1874
 k-point  9 :   0.0625 0.4167 0.0833  plane waves:    1887
 k-point 10 :   0.1875 0.4167 0.0833  plane waves:    1883
 k-point 11 :   0.3125 0.4167 0.0833  plane waves:    1876
 k-point 12 :   0.4375 0.4167 0.0833  plane waves:    1876
 k-point 13 :   0.0625-0.4167 0.0833  plane waves:    1888
 k-point 14 :   0.1875-0.4167 0.0833  plane waves:    1896
 k-point 15 :   0.3125-0.4167 0.0833  plane waves:    1879
 k-point 16 :   0.4375-0.4167 0.0833  plane waves:    1873
 k-point 17 :   0.0625-0.2500 0.0833  plane waves:    1890
 k-point 18 :   0.1875-0.2500 0.0833  plane waves:    1888
 k-point 19 :   0.3125-0.2500 0.0833  plane waves:    1881
 k-point 20 :   0.4375-0.2500 0.0833  plane waves:    1881
 k-point 21 :   0.0625-0.0833 0.0833  plane waves:    1887
 k-point 22 :   0.1875-0.0833 0.0833  plane waves:    1881
 k-point 23 :   0.3125-0.0833 0.0833  plane waves:    1884
 k-point 24 :   0.4375-0.0833 0.0833  plane waves:    1881
 k-point 25 :   0.0625 0.0833 0.2500  plane waves:    1887
 k-point 26 :   0.1875 0.0833 0.2500  plane waves:    1887
 k-point 27 :   0.3125 0.0833 0.2500  plane waves:    1874
 k-point 28 :   0.4375 0.0833 0.2500  plane waves:    1878
 k-point 29 :   0.0625 0.2500 0.2500  plane waves:    1882
 k-point 30 :   0.1875 0.2500 0.2500  plane waves:    1881
 k-point 31 :   0.3125 0.2500 0.2500  plane waves:    1878
 k-point 32 :   0.4375 0.2500 0.2500  plane waves:    1875
 k-point 33 :   0.0625 0.4167 0.2500  plane waves:    1885
 k-point 34 :   0.1875 0.4167 0.2500  plane waves:    1876
 k-point 35 :   0.3125 0.4167 0.2500  plane waves:    1881
 k-point 36 :   0.4375 0.4167 0.2500  plane waves:    1873
 k-point 37 :   0.0625-0.4167 0.2500  plane waves:    1888
 k-point 38 :   0.1875-0.4167 0.2500  plane waves:    1892
 k-point 39 :   0.3125-0.4167 0.2500  plane waves:    1878
 k-point 40 :   0.4375-0.4167 0.2500  plane waves:    1868
 k-point 41 :   0.0625-0.2500 0.2500  plane waves:    1888
 k-point 42 :   0.1875-0.2500 0.2500  plane waves:    1889
 k-point 43 :   0.3125-0.2500 0.2500  plane waves:    1882
 k-point 44 :   0.4375-0.2500 0.2500  plane waves:    1872
 k-point 45 :   0.0625-0.0833 0.2500  plane waves:    1895
 k-point 46 :   0.1875-0.0833 0.2500  plane waves:    1885
 k-point 47 :   0.3125-0.0833 0.2500  plane waves:    1881
 k-point 48 :   0.4375-0.0833 0.2500  plane waves:    1876
 k-point 49 :   0.0625 0.0833 0.4167  plane waves:    1892
 k-point 50 :   0.1875 0.0833 0.4167  plane waves:    1890
 k-point 51 :   0.3125 0.0833 0.4167  plane waves:    1877
 k-point 52 :   0.4375 0.0833 0.4167  plane waves:    1867
 k-point 53 :   0.0625 0.2500 0.4167  plane waves:    1884
 k-point 54 :   0.1875 0.2500 0.4167  plane waves:    1880
 k-point 55 :   0.3125 0.2500 0.4167  plane waves:    1878
 k-point 56 :   0.4375 0.2500 0.4167  plane waves:    1858
 k-point 57 :   0.0625 0.4167 0.4167  plane waves:    1887
 k-point 58 :   0.1875 0.4167 0.4167  plane waves:    1881
 k-point 59 :   0.3125 0.4167 0.4167  plane waves:    1876
 k-point 60 :   0.4375 0.4167 0.4167  plane waves:    1865
 k-point 61 :   0.0625-0.4167 0.4167  plane waves:    1888
 k-point 62 :   0.1875-0.4167 0.4167  plane waves:    1884
 k-point 63 :   0.3125-0.4167 0.4167  plane waves:    1876
 k-point 64 :   0.4375-0.4167 0.4167  plane waves:    1861
 k-point 65 :   0.0625-0.2500 0.4167  plane waves:    1883
 k-point 66 :   0.1875-0.2500 0.4167  plane waves:    1889
 k-point 67 :   0.3125-0.2500 0.4167  plane waves:    1873
 k-point 68 :   0.4375-0.2500 0.4167  plane waves:    1867
 k-point 69 :   0.0625-0.0833 0.4167  plane waves:    1891
 k-point 70 :   0.1875-0.0833 0.4167  plane waves:    1891
 k-point 71 :   0.3125-0.0833 0.4167  plane waves:    1873
 k-point 72 :   0.4375-0.0833 0.4167  plane waves:    1862

 maximum and minimum number of plane-waves per node :      1896     1858

 maximum number of plane-waves:      1896
 maximum index in each direction: 
   IXMAX=    5   IYMAX=    9   IZMAX=    9
   IXMIN=   -5   IYMIN=   -9   IZMIN=   -9

 NGX is ok and might be reduce to  22
 NGY is ok and might be reduce to  38
 NGZ is ok and might be reduce to  38

 serial   3D FFT for wavefunctions
 parallel 3D FFT for charge:
    minimum data exchange during FFTs selected (reduces bandwidth)


 total amount of memory used by VASP on root node    43688. kBytes
========================================================================

   base      :      30000. kBytes
   nonlr-proj:       4664. kBytes
   fftplans  :        397. kBytes
   grid      :       3735. kBytes
   one-center:        248. kBytes
   wavefun   :       4644. kBytes
 
     INWAV:  cpu time    0.0010: real time    0.0001
 Broyden mixing: mesh for mixing (old mesh)
   NGX = 11   NGY = 19   NGZ = 19
  (NGX  = 48   NGY  = 80   NGZ  = 80)
  gives a total of   3971 points

 initial charge density was supplied:
 charge density of overlapping atoms calculated
 number of electron      45.0000000 magnetization       5.7000000
 keeping initial charge density in first step


--------------------------------------------------------------------------------------------------------


 Maximum index for non-local projection operator         8063
 Maximum index for augmentation-charges          921 (set IRDMAX)


--------------------------------------------------------------------------------------------------------


 First call to EWALD:  gamma=   0.430
 Maximum number of real-space cells 4x 2x 2
 Maximum number of reciprocal cells 2x 3x 3

 FEWALD executed in parallel
    FEWALD:  cpu time    0.0020: real time    0.0016


----------------------------------------- Iteration    1(   1)  ---------------------------------------


    POTLOK:  cpu time    0.0210: real time    0.0217
    SETDIJ:  cpu time    0.0060: real time    0.0058
     EDDAV:  cpu time    4.6943: real time    4.6938
 BZINTS: Fermi energy:  9.040254; 45.000000 electrons
         Band energy:  15.579784;  BLOECHL correction: -0.067092
       DOS:  cpu time    0.1240: real time    0.1241
    --------------------------------------------
      LOOP:  cpu time    4.8483: real time    4.8485

 eigenvalue-minimisations  : 13824
 total energy-change (2. order) : 0.8048995E+02  (-0.2636605E+04)
 number of electron      45.0000000 magnetization       5.7000000
 augmentation part       45.0000000 magnetization       5.7000000

 Free energy of the ion-electron system (eV)
  ---------------------------------------------------
  alpha Z        PSCENC =       192.12196154
  Ewald energy   TEWEN  =     -2736.17057933
  -Hartree energ DENC   =     -1089.57682257
  -exchange      EXHF   =         0.00000000
  -V(xc)+E(xc)   XCENC  =       151.50591929
  PAW double counting   =      2499.44482102    -2583.90028733
  entropy T*S    EENTRO =         0.00000000
  eigenvalues    EBANDS =        15.57978433
  atomic energy  EATOM  =      3631.48514882
  Solvation  Ediel_sol  =         0.00000000
  ---------------------------------------------------
  free energy    TOTEN  =        80.48994577 eV

  energy without entropy =       80.48994577  energy(sigma->0) =       80.48994577


--------------------------------------------------------------------------------------------------------




----------------------------------------- Iteration    1(   2)  ---------------------------------------


     EDDAV:  cpu time    6.6360: real time    6.6338
 BZINTS: Fermi energy:  6.435933; 45.000000 electrons
         Band energy:-115.862084;  BLOECHL correction: -0.010581
       DOS:  cpu time    0.1400: real time    0.1406
    --------------------------------------------
      LOOP:  cpu time    6.7770: real time    6.7765

 eigenvalue-minimisations  : 17520
 total energy-change (2. order) :-0.1314419E+03  (-0.1312478E+03)
 number of electron      45.0000000 magnetization       5.7000000
 augmentation part       45.0000000 magnetization       5.7000000

 Free energy of the ion-electron system (eV)
  ---------------------------------------------------
  alpha Z        PSCENC =       192.12196154
  Ewald energy   TEWEN  =     -2736.17057933
  -Hartree energ DENC   =     -1089.57682257
  -exchange      EXHF   =         0.00000000
  -V(xc)+E(xc)   XCENC  =       151.50591929
  PAW double counting   =      2499.44482102    -2583.90028733
  entropy T*S    EENTRO =         0.00000000
  eigenvalues    EBANDS =      -115.86208424
  atomic energy  EATOM  =      3631.48514882
  Solvation  Ediel_sol  =         0.00000000
  ---------------------------------------------------
  free energy    TOTEN  =       -50.95192281 eV

  energy without entropy =      -50.95192281  energy(sigma->0) =      -50.95192281


--------------------------------------------------------------------------------------------------------




----------------------------------------- Iteration    1(   3)  ---------------------------------------


     EDDAV:  cpu time    6.9759: real time    6.9750
 BZINTS: Fermi energy:  6.415189; 45.000000 electrons
         Band energy:-117.332256;  BLOECHL correction: -0.010709
       DOS:  cpu time    0.1440: real time    0.1436
    --------------------------------------------
      LOOP:  cpu time    7.1209: real time    7.1207

 eigenvalue-minimisations  : 17664
 total energy-change (2. order) :-0.1470172E+01  (-0.1469792E+01)
 number of electron      45.0000000 magnetization       5.7000000
 augmentation part       45.0000000 magnetization       5.7000000

 Free energy of the ion-electron system (eV)
  ---------------------------------------------------
  alpha Z        PSCENC =       192.12196154
  Ewald energy   TEWEN  =     -2736.17057933
  -Hartree energ DENC   =     -1089.57682257
  -exchange      EXHF   =         0.00000000
  -V(xc)+E(xc)   XCENC  =       151.50591929
  PAW double counting   =      2499.44482102    -2583.90028733
  entropy T*S    EENTRO =         0.00000000
  eigenvalues    EBANDS =      -117.33225624
  atomic energy  EATOM  =      3631.48514882
  Solvation  Ediel_sol  =         0.00000000
  ---------------------------------------------------
  free energy    TOTEN  =       -52.42209481 eV

  energy without entropy =      -52.42209481  energy(sigma->0) =      -52.42209481


--------------------------------------------------------------------------------------------------------




----------------------------------------- Iteration    1(   4)  ---------------------------------------


     EDDAV:  cpu time    9.8165: real time    9.8138
 BZINTS: Fermi energy:  6.415159; 45.000000 electrons
         Band energy:-117.334202;  BLOECHL correction: -0.010711
       DOS:  cpu time    0.1430: real time    0.1436
    --------------------------------------------
      LOOP:  cpu time    9.9605: real time    9.9601

 eigenvalue-minimisations  : 22176
 total energy-change (2. order) :-0.1945751E-02  (-0.1945075E-02)
 number of electron      45.0000000 magnetization       5.7000000
 augmentation part       45.0000000 magnetization       5.7000000

 Free energy of the ion-electron system (eV)
  ---------------------------------------------------
  alpha Z        PSCENC =       192.12196154
  Ewald energy   TEWEN  =     -2736.17057933
  -Hartree energ DENC   =     -1089.57682257
  -exchange      EXHF   =         0.00000000
  -V(xc)+E(xc)   XCENC  =       151.50591929
  PAW double counting   =      2499.44482102    -2583.90028733
  entropy T*S    EENTRO =         0.00000000
  eigenvalues    EBANDS =      -117.33420199
  atomic energy  EATOM  =      3631.48514882
  Solvation  Ediel_sol  =         0.00000000
  ---------------------------------------------------
  free energy    TOTEN  =       -52.42404056 eV

  energy without entropy =      -52.42404056  energy(sigma->0) =      -52.42404056


--------------------------------------------------------------------------------------------------------




----------------------------------------- Iteration    1(   5)  ---------------------------------------


     EDDAV:  cpu time    7.6828: real time    7.6814
 BZINTS: Fermi energy:  6.415159; 45.000000 electrons
         Band energy:-117.334202;  BLOECHL correction: -0.010711
       DOS:  cpu time    0.1410: real time    0.1402
    CHARGE:  cpu time    0.0950: real time    0.0951
    MIXING:  cpu time    0.0010: real time    0.0006
    --------------------------------------------
      LOOP:  cpu time    7.9218: real time    7.9204

 eigenvalue-minimisations  : 18624
 total energy-change (2. order) :-0.2664797E-06  (-0.2658684E-06)
 number of electron      45.0000011 magnetization       2.9666907
 augmentation part       12.5056568 magnetization       2.2321947

 Broyden mixing:
  rms(total) = 0.26887E+01    rms(broyden)= 0.26884E+01
  rms(prec ) = 0.58133E+01
  weight for this iteration     100.00

 Free energy of the ion-electron system (eV)
  ---------------------------------------------------
  alpha Z        PSCENC =       192.12196154
  Ewald energy   TEWEN  =     -2736.17057933
  -Hartree energ DENC   =     -1089.57682257
  -exchange      EXHF   =         0.00000000
  -V(xc)+E(xc)   XCENC  =       151.50591929
  PAW double counting   =      2499.44482102    -2583.90028733
  entropy T*S    EENTRO =         0.00000000
  eigenvalues    EBANDS =      -117.33420226
  atomic energy  EATOM  =      3631.48514882
  Solvation  Ediel_sol  =         0.00000000
  ---------------------------------------------------
  free energy    TOTEN  =       -52.42404082 eV

  energy without entropy =      -52.42404082  energy(sigma->0) =      -52.42404082


--------------------------------------------------------------------------------------------------------




----------------------------------------- Iteration    1(   6)  ---------------------------------------


    POTLOK:  cpu time    0.0200: real time    0.0196
    SETDIJ:  cpu time    0.0050: real time    0.0057
    EDDIAG:  cpu time    0.9499: real time    0.9500
  RMM-DIIS:  cpu time    1.7497: real time    1.7499
    ORTHCH:  cpu time    0.1370: real time    0.1374
 BZINTS: Fermi energy:  2.526937; 45.000000 electrons
         Band energy:-181.736174;  BLOECHL correction: -0.097079
       DOS:  cpu time    0.1540: real time    0.1543
    CHARGE:  cpu time    0.0950: real time    0.0950
    MIXING:  cpu time    0.0010: real time    0.0005
    --------------------------------------------
      LOOP:  cpu time    3.1135: real time    3.1142

 eigenvalue-minimisations  : 14070
 total energy-change (2. order) :-0.8375746E+01  (-0.6895332E+01)
 number of electron      45.0000010 magnetization       2.1218420
 augmentation part       16.1773981 magnetization       2.1645178

 Broyden mixing:
  rms(total) = 0.35736E+01    rms(broyden)= 0.35732E+01
  rms(prec ) = 0.75978E+01
  weight for this iteration     100.00

 eigenvalues of (default mixing * dielectric matrix)
  average eigenvalue GAMMA=   0.4313
  0.4313

 Free energy of the ion-electron system (eV)
  ---------------------------------------------------
  alpha Z        PSCENC =       192.12196154
  Ewald energy   TEWEN  =     -2736.17057933
  -Hartree energ DENC   =     -1057.55679213
  -exchange      EXHF   =         0.00000000
  -V(xc)+E(xc)   XCENC  =       153.53536192
  PAW double counting   =      2516.83070378    -2579.30941692
  entropy T*S    EENTRO =         0.00000000
  eigenvalues    EBANDS =      -181.73617442
  atomic energy  EATOM  =      3631.48514882
  Solvation  Ediel_sol  =         0.00000000
  ---------------------------------------------------
  free energy    TOTEN  =       -60.79978675 eV

  energy without entropy =      -60.79978675  energy(sigma->0) =      -60.79978675


--------------------------------------------------------------------------------------------------------




----------------------------------------- Iteration    1(   7)  ---------------------------------------


    POTLOK:  cpu time    0.0200: real time    0.0198
    SETDIJ:  cpu time    0.0060: real time    0.0057
    EDDIAG:  cpu time    0.9469: real time    0.9470
  RMM-DIIS:  cpu time    1.5678: real time    1.5666
    ORTHCH:  cpu time    0.1370: real time    0.1371
 BZINTS: Fermi energy:  3.921693; 45.000000 electrons
         Band energy:-123.741577;  BLOECHL correction: -0.003318
       DOS:  cpu time    0.1450: real time    0.1453
    CHARGE:  cpu time    0.0950: real time    0.0949
    MIXING:  cpu time    0.0000: real time    0.0004
    --------------------------------------------
      LOOP:  cpu time    2.9176: real time    2.9188

 eigenvalue-minimisations  : 13830
 total energy-change (2. order) : 0.1696891E+02  (-0.1644008E+01)
 number of electron      45.0000011 magnetization       2.2997567
 augmentation part       13.1624052 magnetization       1.4470622

 Broyden mixing:
  rms(total) = 0.15028E+01    rms(broyden)= 0.15025E+01
  rms(prec ) = 0.33447E+01
  weight for this iteration     100.00

 eigenvalues of (default mixing * dielectric matrix)
  average eigenvalue GAMMA=   0.3864
  0.5070  0.2657

 Free energy of the ion-electron system (eV)
  ---------------------------------------------------
  alpha Z        PSCENC =       192.12196154
  Ewald energy   TEWEN  =     -2736.17057933
  -Hartree energ DENC   =     -1076.77377178
  -exchange      EXHF   =         0.00000000
  -V(xc)+E(xc)   XCENC  =       152.52739787
  PAW double counting   =      2585.10887567    -2668.38833056
  entropy T*S    EENTRO =         0.00000000
  eigenvalues    EBANDS =      -123.74157750
  atomic energy  EATOM  =      3631.48514882
  Solvation  Ediel_sol  =         0.00000000
  ---------------------------------------------------
  free energy    TOTEN  =       -43.83087527 eV

  energy without entropy =      -43.83087527  energy(sigma->0) =      -43.83087527


--------------------------------------------------------------------------------------------------------




----------------------------------------- Iteration    1(   8)  ---------------------------------------


    POTLOK:  cpu time    0.0190: real time    0.0193
    SETDIJ:  cpu time    0.0060: real time    0.0057
    EDDIAG:  cpu time    0.9479: real time    0.9473
  RMM-DIIS:  cpu time    1.5558: real time    1.5559
    ORTHCH:  cpu time    0.1370: real time    0.1371
 BZINTS: Fermi energy:  2.705783; 45.000000 electrons
         Band energy:-122.349009;  BLOECHL correction: -0.000108
       DOS:  cpu time    0.1290: real time    0.1296
    CHARGE:  cpu time    0.0960: real time    0.0953
    MIXING:  cpu time    0.0000: real time    0.0004
    --------------------------------------------
      LOOP:  cpu time    2.8916: real time    2.8924

 eigenvalue-minimisations  : 13827
 total energy-change (2. order) : 0.2361273E+01  (-0.8564154E-01)
 number of electron      45.0000010 magnetization       2.5804624
 augmentation part       13.4224409 magnetization       1.7940070

 Broyden mixing:
  rms(total) = 0.81437E+00    rms(broyden)= 0.81431E+00
  rms(prec ) = 0.17758E+01
  weight for this iteration     100.00

 eigenvalues of (default mixing * dielectric matrix)
  average eigenvalue GAMMA=   0.5422
  0.6381  0.6381  0.3504

 Free energy of the ion-electron system (eV)
  ---------------------------------------------------
  alpha Z        PSCENC =       192.12196154
  Ewald energy   TEWEN  =     -2736.17057933
  -Hartree energ DENC   =     -1074.60555820
  -exchange      EXHF   =         0.00000000
  -V(xc)+E(xc)   XCENC  =       152.40125072
  PAW double counting   =      2599.43707134    -2683.78988843
  entropy T*S    EENTRO =         0.00000000
  eigenvalues    EBANDS =      -122.34900863
  atomic energy  EATOM  =      3631.48514882
  Solvation  Ediel_sol  =         0.00000000
  ---------------------------------------------------
  free energy    TOTEN  =       -41.46960216 eV

  energy without entropy =      -41.46960216  energy(sigma->0) =      -41.46960216


--------------------------------------------------------------------------------------------------------




----------------------------------------- Iteration    1(   9)  ---------------------------------------


    POTLOK:  cpu time    0.0200: real time    0.0204
    SETDIJ:  cpu time    0.0060: real time    0.0057
    EDDIAG:  cpu time    0.9479: real time    0.9480
  RMM-DIIS:  cpu time    1.7817: real time    1.7809
    ORTHCH:  cpu time    0.1380: real time    0.1375
 BZINTS: Fermi energy:  2.547386; 45.000000 electrons
         Band energy:-125.292703;  BLOECHL correction: -0.013498
       DOS:  cpu time    0.1260: real time    0.1265
    CHARGE:  cpu time    0.0950: real time    0.0951
    MIXING:  cpu time    0.0000: real time    0.0004
    --------------------------------------------
      LOOP:  cpu time    3.1155: real time    3.1164

 eigenvalue-minimisations  : 14009
 total energy-change (2. order) : 0.2336590E+00  (-0.1793326E-01)
 number of electron      45.0000010 magnetization       2.3983828
 augmentation part       13.6718399 magnetization       1.9527320

 Broyden mixing:
  rms(total) = 0.33691E+00    rms(broyden)= 0.33681E+00
  rms(prec ) = 0.60310E+00
  weight for this iteration     100.00

 eigenvalues of (default mixing * dielectric matrix)
  average eigenvalue GAMMA=   0.5676
  0.9606  0.3668  0.4715  0.4715

 Free energy of the ion-electron system (eV)
  ---------------------------------------------------
  alpha Z        PSCENC =       192.12196154
  Ewald energy   TEWEN  =     -2736.17057933
  -Hartree energ DENC   =     -1071.88717606
  -exchange      EXHF   =         0.00000000
  -V(xc)+E(xc)   XCENC  =       152.50238040
  PAW double counting   =      2617.62845537    -2701.62343075
  entropy T*S    EENTRO =         0.00000000
  eigenvalues    EBANDS =      -125.29270319
  atomic energy  EATOM  =      3631.48514882
  Solvation  Ediel_sol  =         0.00000000
  ---------------------------------------------------
  free energy    TOTEN  =       -41.23594321 eV

  energy without entropy =      -41.23594321  energy(sigma->0) =      -41.23594321


--------------------------------------------------------------------------------------------------------




----------------------------------------- Iteration    1(  10)  ---------------------------------------


    POTLOK:  cpu time    0.0190: real time    0.0193
    SETDIJ:  cpu time    0.0060: real time    0.0057
    EDDIAG:  cpu time    0.9499: real time    0.9496
  RMM-DIIS:  cpu time    1.6098: real time    1.6091
    ORTHCH:  cpu time    0.1380: real time    0.1372
 BZINTS: Fermi energy:  2.395498; 45.000000 electrons
         Band energy:-128.452551;  BLOECHL correction: -0.014285
       DOS:  cpu time    0.1370: real time    0.1374
    CHARGE:  cpu time    0.0950: real time    0.0953
    MIXING:  cpu time    0.0000: real time    0.0005
    --------------------------------------------
      LOOP:  cpu time    2.9556: real time    2.9562

 eigenvalue-minimisations  : 13890
 total energy-change (2. order) :-0.2649504E+00  (-0.7472993E-02)
 number of electron      45.0000010 magnetization       1.7986250
 augmentation part       13.9571424 magnetization       1.8800784

 Broyden mixing:
  rms(total) = 0.55133E+00    rms(broyden)= 0.55125E+00
  rms(prec ) = 0.10100E+01
  weight for this iteration     100.00

 eigenvalues of (default mixing * dielectric matrix)
  average eigenvalue GAMMA=   0.6094
  1.2434  0.5537  0.3168  0.4666  0.4666

 Free energy of the ion-electron system (eV)
  ---------------------------------------------------
  alpha Z        PSCENC =       192.12196154
  Ewald energy   TEWEN  =     -2736.17057933
  -Hartree energ DENC   =     -1068.40611443
  -exchange      EXHF   =         0.00000000
  -V(xc)+E(xc)   XCENC  =       152.43302299
  PAW double counting   =      2640.39907115    -2724.91085377
  entropy T*S    EENTRO =         0.00000000
  eigenvalues    EBANDS =      -128.45255055
  atomic energy  EATOM  =      3631.48514882
  Solvation  Ediel_sol  =         0.00000000
  ---------------------------------------------------
  free energy    TOTEN  =       -41.50089359 eV

  energy without entropy =      -41.50089359  energy(sigma->0) =      -41.50089359


--------------------------------------------------------------------------------------------------------




----------------------------------------- Iteration    1(  11)  ---------------------------------------


    POTLOK:  cpu time    0.0200: real time    0.0195
    SETDIJ:  cpu time    0.0050: real time    0.0058
    EDDIAG:  cpu time    0.9479: real time    0.9472
  RMM-DIIS:  cpu time    1.6487: real time    1.6481
    ORTHCH:  cpu time    0.1370: real time    0.1373
 BZINTS: Fermi energy:  2.371024; 45.000000 electrons
         Band energy:-129.393001;  BLOECHL correction: -0.011184
       DOS:  cpu time    0.1370: real time    0.1371
    CHARGE:  cpu time    0.0960: real time    0.0953
    MIXING:  cpu time    0.0000: real time    0.0005
    --------------------------------------------
      LOOP:  cpu time    2.9925: real time    2.9926

 eigenvalue-minimisations  : 13956
 total energy-change (2. order) :-0.2097989E+00  (-0.6426801E-02)
 number of electron      45.0000010 magnetization       1.2353714
 augmentation part       13.9359340 magnetization       1.4516458

 Broyden mixing:
  rms(total) = 0.42816E+00    rms(broyden)= 0.42812E+00
  rms(prec ) = 0.81729E+00
  weight for this iteration     100.00

 eigenvalues of (default mixing * dielectric matrix)
  average eigenvalue GAMMA=   0.7406
  1.4440  0.7793  0.7793  0.3269  0.5571  0.5571

 Free energy of the ion-electron system (eV)
  ---------------------------------------------------
  alpha Z        PSCENC =       192.12196154
  Ewald energy   TEWEN  =     -2736.17057933
  -Hartree energ DENC   =     -1066.79696098
  -exchange      EXHF   =         0.00000000
  -V(xc)+E(xc)   XCENC  =       152.29530492
  PAW double counting   =      2656.68893089    -2741.94149744
  entropy T*S    EENTRO =         0.00000000
  eigenvalues    EBANDS =      -129.39300096
  atomic energy  EATOM  =      3631.48514882
  Solvation  Ediel_sol  =         0.00000000
  ---------------------------------------------------
  free energy    TOTEN  =       -41.71069254 eV

  energy without entropy =      -41.71069254  energy(sigma->0) =      -41.71069254


--------------------------------------------------------------------------------------------------------




----------------------------------------- Iteration    1(  12)  ---------------------------------------


    POTLOK:  cpu time    0.0190: real time    0.0195
    SETDIJ:  cpu time    0.0060: real time    0.0058
    EDDIAG:  cpu time    0.9489: real time    0.9481
  RMM-DIIS:  cpu time    1.6477: real time    1.6481
    ORTHCH:  cpu time    0.1380: real time    0.1372
 BZINTS: Fermi energy:  2.420327; 45.000000 electrons
         Band energy:-129.427411;  BLOECHL correction: -0.012611
       DOS:  cpu time    0.1330: real time    0.1336
    CHARGE:  cpu time    0.0960: real time    0.0955
    MIXING:  cpu time    0.0000: real time    0.0005
    --------------------------------------------
      LOOP:  cpu time    2.9895: real time    2.9904

 eigenvalue-minimisations  : 13995
 total energy-change (2. order) :-0.5748901E-01  (-0.5566337E-02)
 number of electron      45.0000010 magnetization       1.1216823
 augmentation part       13.8535244 magnetization       1.2902704

 Broyden mixing:
  rms(total) = 0.19434E+00    rms(broyden)= 0.19428E+00
  rms(prec ) = 0.34759E+00
  weight for this iteration     100.00

 eigenvalues of (default mixing * dielectric matrix)
  average eigenvalue GAMMA=   0.8370
  1.4530  1.4530  0.6901  0.6901  0.3263  0.6231  0.6231

 Free energy of the ion-electron system (eV)
  ---------------------------------------------------
  alpha Z        PSCENC =       192.12196154
  Ewald energy   TEWEN  =     -2736.17057933
  -Hartree energ DENC   =     -1066.36829844
  -exchange      EXHF   =         0.00000000
  -V(xc)+E(xc)   XCENC  =       152.26986339
  PAW double counting   =      2669.43396661    -2755.11283299
  entropy T*S    EENTRO =         0.00000000
  eigenvalues    EBANDS =      -129.42741115
  atomic energy  EATOM  =      3631.48514882
  Solvation  Ediel_sol  =         0.00000000
  ---------------------------------------------------
  free energy    TOTEN  =       -41.76818155 eV

  energy without entropy =      -41.76818155  energy(sigma->0) =      -41.76818155


--------------------------------------------------------------------------------------------------------




----------------------------------------- Iteration    1(  13)  ---------------------------------------


    POTLOK:  cpu time    0.0210: real time    0.0206
    SETDIJ:  cpu time    0.0060: real time    0.0058
    EDDIAG:  cpu time    0.9489: real time    0.9488
  RMM-DIIS:  cpu time    1.7007: real time    1.7007
    ORTHCH:  cpu time    0.1370: real time    0.1372
 BZINTS: Fermi energy:  2.399451; 45.000000 electrons
         Band energy:-129.391252;  BLOECHL correction: -0.013105
       DOS:  cpu time    0.1370: real time    0.1368
    CHARGE:  cpu time    0.0960: real time    0.0955
    MIXING:  cpu time    0.0000: real time    0.0005
    --------------------------------------------
      LOOP:  cpu time    3.0475: real time    3.0479

 eigenvalue-minimisations  : 14005
 total energy-change (2. order) :-0.4545023E-01  (-0.1845307E-02)
 number of electron      45.0000010 magnetization       0.9628810
 augmentation part       13.8043022 magnetization       1.0959503

 Broyden mixing:
  rms(total) = 0.87056E-01    rms(broyden)= 0.86990E-01
  rms(prec ) = 0.11886E+00
  weight for this iteration     100.00

 eigenvalues of (default mixing * dielectric matrix)
  average eigenvalue GAMMA=   0.9894
  2.0695  2.0695  0.7161  0.7161  0.3262  0.7116  0.7116  0.5943

 Free energy of the ion-electron system (eV)
  ---------------------------------------------------
  alpha Z        PSCENC =       192.12196154
  Ewald energy   TEWEN  =     -2736.17057933
  -Hartree energ DENC   =     -1066.52709886
  -exchange      EXHF   =         0.00000000
  -V(xc)+E(xc)   XCENC  =       152.30501762
  PAW double counting   =      2674.74397832    -2760.38080804
  entropy T*S    EENTRO =         0.00000000
  eigenvalues    EBANDS =      -129.39125185
  atomic energy  EATOM  =      3631.48514882
  Solvation  Ediel_sol  =         0.00000000
  ---------------------------------------------------
  free energy    TOTEN  =       -41.81363179 eV

  energy without entropy =      -41.81363179  energy(sigma->0) =      -41.81363179


--------------------------------------------------------------------------------------------------------




----------------------------------------- Iteration    1(  14)  ---------------------------------------


    POTLOK:  cpu time    0.0190: real time    0.0195
    SETDIJ:  cpu time    0.0060: real time    0.0058
    EDDIAG:  cpu time    0.9519: real time    0.9509
  RMM-DIIS:  cpu time    1.7157: real time    1.7162
    ORTHCH:  cpu time    0.1380: real time    0.1375
 BZINTS: Fermi energy:  2.433944; 45.000000 electrons
         Band energy:-129.974486;  BLOECHL correction: -0.013081
       DOS:  cpu time    0.1410: real time    0.1403
    CHARGE:  cpu time    0.0950: real time    0.0953
    MIXING:  cpu time    0.0000: real time    0.0006
    --------------------------------------------
      LOOP:  cpu time    3.0685: real time    3.0682

 eigenvalue-minimisations  : 14008
 total energy-change (2. order) :-0.2165547E-01  (-0.1207020E-02)
 number of electron      45.0000010 magnetization       0.9664372
 augmentation part       13.7954949 magnetization       1.0645393

 Broyden mixing:
  rms(total) = 0.33731E-01    rms(broyden)= 0.33694E-01
  rms(prec ) = 0.47961E-01
  weight for this iteration     100.00

 eigenvalues of (default mixing * dielectric matrix)
  average eigenvalue GAMMA=   0.9691
  2.0270  2.0270  0.7308  0.7308  0.8543  0.8543  0.3262  0.5858  0.5858

 Free energy of the ion-electron system (eV)
  ---------------------------------------------------
  alpha Z        PSCENC =       192.12196154
  Ewald energy   TEWEN  =     -2736.17057933
  -Hartree energ DENC   =     -1066.04547253
  -exchange      EXHF   =         0.00000000
  -V(xc)+E(xc)   XCENC  =       152.32580530
  PAW double counting   =      2681.26169621    -2766.83936169
  entropy T*S    EENTRO =         0.00000000
  eigenvalues    EBANDS =      -129.97448557
  atomic energy  EATOM  =      3631.48514882
  Solvation  Ediel_sol  =         0.00000000
  ---------------------------------------------------
  free energy    TOTEN  =       -41.83528725 eV

  energy without entropy =      -41.83528725  energy(sigma->0) =      -41.83528725


--------------------------------------------------------------------------------------------------------




----------------------------------------- Iteration    1(  15)  ---------------------------------------


    POTLOK:  cpu time    0.0190: real time    0.0196
    SETDIJ:  cpu time    0.0060: real time    0.0059
    EDDIAG:  cpu time    0.9509: real time    0.9505
[...]
     33      16.3372      0.00000
     34      17.0807      0.00000
     35      17.5653      0.00000
     36      17.9062      0.00000
     37      18.8841      0.00000
     38      19.3833      0.00000
     39      19.8373      0.00000
     40      20.2794      0.00000
     41      20.6442      0.00000
     42      21.9368      0.00000
     43      22.9895      0.00000
     44      24.9685      0.00000
     45      26.6846      0.00000
     46      27.8561      0.00000
     47      28.4090      0.00000
     48      29.2419      0.00000

 k-point    68 :       0.4375   -0.2500    0.4167
  band No.  band energies     occupation 
      1     -14.4939      1.00000
      2     -14.2716      1.00000
      3     -13.9391      1.00000
      4     -13.8038      1.00000
      5      -3.1502      1.00000
      6      -2.9176      1.00000
      7      -2.0392      1.00000
      8      -1.9586      1.00000
      9      -0.9837      1.00000
     10      -0.8242      1.00000
     11      -0.6930      1.00000
     12      -0.3806      1.00000
     13      -0.0958      1.00000
     14       0.3529      1.00000
     15       0.5672      1.00000
     16       0.8794      1.00000
     17       0.9093      1.00000
     18       1.0698      1.00000
     19       1.3448      1.00000
     20       1.8243      1.00000
     21       2.1051      1.00000
     22       2.4518      1.00000
     23       5.3963      0.00000
     24       5.7099      0.00000
     25       6.2386      0.00000
     26       6.6467      0.00000
     27      12.2037      0.00000
     28      12.3584      0.00000
     29      14.3399      0.00000
     30      15.0055      0.00000
     31      15.3284      0.00000
     32      15.8655      0.00000
     33      16.2235      0.00000
     34      16.5341      0.00000
     35      17.5676      0.00000
     36      18.2013      0.00000
     37      18.6945      0.00000
     38      19.1055      0.00000
     39      20.1041      0.00000
     40      20.2193      0.00000
     41      21.2430      0.00000
     42      21.7650      0.00000
     43      22.9506      0.00000
     44      23.6939      0.00000
     45      26.9456      0.00000
     46      27.5172      0.00000
     47      29.5934      0.00000
     48      29.9051      0.00000

 k-point    69 :       0.0625   -0.0833    0.4167
  band No.  band energies     occupation 
      1     -15.5417      1.00000
      2     -14.5104      1.00000
      3     -14.1361      1.00000
      4     -13.8979      1.00000
      5      -3.2215      1.00000
      6      -2.3351      1.00000
      7      -1.4659      1.00000
      8      -1.4403      1.00000
      9      -1.0824      1.00000
     10      -0.9104      1.00000
     11      -0.4616      1.00000
     12       0.2347      1.00000
     13       0.2895      1.00000
     14       0.6812      1.00000
     15       0.7658      1.00000
     16       0.9313      1.00000
     17       1.1523      1.00000
     18       1.5514      1.00000
     19       1.8065      1.00000
     20       1.9388      1.00000
     21       2.2570      1.00000
     22       2.5025      1.00000
     23       5.5684      0.00000
     24       5.7824      0.00000
     25       6.3286      0.00000
     26       6.6603      0.00000
     27      10.6406      0.00000
     28      11.8725      0.00000
     29      13.1251      0.00000
     30      14.9459      0.00000
     31      15.4819      0.00000
     32      15.8340      0.00000
     33      16.4691      0.00000
     34      17.3890      0.00000
     35      19.2099      0.00000
     36      19.4177      0.00000
     37      19.7718      0.00000
     38      20.4018      0.00000
     39      20.6001      0.00000
     40      21.3340      0.00000
     41      21.7946      0.00000
     42      22.3079      0.00000
     43      23.9034      0.00000
     44      25.0626      0.00000
     45      25.9593      0.00000
     46      26.2771      0.00000
     47      26.5607      0.00000
     48      28.1956      0.00000

 k-point    70 :       0.1875   -0.0833    0.4167
  band No.  band energies     occupation 
      1     -15.3040      1.00000
      2     -14.4299      1.00000
      3     -14.0458      1.00000
      4     -13.8681      1.00000
      5      -2.8351      1.00000
      6      -2.0914      1.00000
      7      -1.8644      1.00000
      8      -1.5735      1.00000
      9      -1.4824      1.00000
     10      -0.7513      1.00000
     11      -0.3175      1.00000
     12      -0.0704      1.00000
     13       0.0558      1.00000
     14       0.1453      1.00000
     15       0.6058      1.00000
     16       0.6670      1.00000
     17       1.1871      1.00000
     18       1.3275      1.00000
     19       1.6119      1.00000
     20       2.0577      1.00000
     21       2.4002      1.00000
     22       2.6662      1.00000
     23       5.3564      0.00000
     24       5.6888      0.00000
     25       6.1378      0.00000
     26       6.6550      0.00000
     27      11.5873      0.00000
     28      12.3966      0.00000
     29      13.4457      0.00000
     30      15.0992      0.00000
     31      15.7994      0.00000
     32      16.0471      0.00000
     33      16.5455      0.00000
     34      17.1794      0.00000
     35      18.5547      0.00000
     36      18.8216      0.00000
     37      19.0848      0.00000
     38      20.0058      0.00000
     39      20.1120      0.00000
     40      20.4979      0.00000
     41      20.6385      0.00000
     42      22.4751      0.00000
     43      23.2911      0.00000
     44      25.4015      0.00000
     45      25.7940      0.00000
     46      27.6263      0.00000
     47      27.7952      0.00000
     48      28.9515      0.00000

 k-point    71 :       0.3125   -0.0833    0.4167
  band No.  band energies     occupation 
      1     -14.9113      1.00000
      2     -14.3120      1.00000
      3     -13.9404      1.00000
      4     -13.8344      1.00000
      5      -2.3918      1.00000
      6      -2.3018      1.00000
      7      -2.1397      1.00000
      8      -1.7899      1.00000
      9      -1.5960      1.00000
     10      -1.0706      1.00000
     11      -0.4293      1.00000
     12      -0.3803      1.00000
     13      -0.2905      1.00000
     14       0.2364      1.00000
     15       0.4719      1.00000
     16       0.6636      1.00000
     17       0.9072      1.00000
     18       1.3813      1.00000
     19       1.5054      1.00000
     20       1.9970      1.00000
     21       2.4845      1.00000
     22       2.5396      1.00000
     23       5.2129      0.00000
     24       5.6216      0.00000
     25       6.1134      0.00000
     26       6.5789      0.00000
     27      12.7249      0.00000
     28      12.8741      0.00000
     29      13.6924      0.00000
     30      14.3799      0.00000
     31      16.0884      0.00000
     32      16.2371      0.00000
     33      16.8251      0.00000
     34      17.0412      0.00000
     35      17.5073      0.00000
     36      18.0344      0.00000
     37      18.6404      0.00000
     38      19.3859      0.00000
     39      19.5674      0.00000
     40      20.6266      0.00000
     41      20.8550      0.00000
     42      21.9159      0.00000
     43      23.2887      0.00000
     44      24.9738      0.00000
     45      25.6267      0.00000
     46      27.2132      0.00000
     47      28.3672      0.00000
     48      30.1610      0.00000

 k-point    72 :       0.4375   -0.0833    0.4167
  band No.  band energies     occupation 
      1     -14.5496      1.00000
      2     -14.2249      1.00000
      3     -13.9297      1.00000
      4     -13.8113      1.00000
      5      -2.7433      1.00000
      6      -2.5474      1.00000
      7      -2.2753      1.00000
      8      -2.0407      1.00000
      9      -1.3038      1.00000
     10      -0.8819      1.00000
     11      -0.6015      1.00000
     12      -0.5061      1.00000
     13      -0.3552      1.00000
     14       0.3064      1.00000
     15       0.5303      1.00000
     16       0.7063      1.00000
     17       0.9940      1.00000
     18       1.0491      1.00000
     19       1.5655      1.00000
     20       1.8358      1.00000
     21       2.1169      1.00000
     22       2.6229      1.00000
     23       5.3143      0.00000
     24       5.5095      0.00000
     25       6.1768      0.00000
     26       6.4902      0.00000
     27      12.8563      0.00000
     28      13.3082      0.00000
     29      13.9825      0.00000
     30      14.5484      0.00000
     31      15.1987      0.00000
     32      15.9365      0.00000
     33      16.4455      0.00000
     34      16.6915      0.00000
     35      17.4419      0.00000
     36      18.1516      0.00000
     37      18.5600      0.00000
     38      19.2015      0.00000
     39      20.0230      0.00000
     40      20.6231      0.00000
     41      20.9758      0.00000
     42      21.8710      0.00000
     43      23.4570      0.00000
     44      24.2610      0.00000
     45      25.0047      0.00000
     46      25.8276      0.00000
     47      30.3168      0.00000
     48      30.6581      0.00000


--------------------------------------------------------------------------------------------------------


 soft charge-density along one line, spin component           1
         0         1         2         3         4         5         6         7         8         9
 total charge-density along one line
 
 soft charge-density along one line, spin component           2
         0         1         2         3         4         5         6         7         8         9
 total charge-density along one line
 
 pseudopotential strength for first ion, spin component:           1
  1.177  -0.049  -0.000  -0.000  -0.000
 -0.049  -0.051   0.000   0.000   0.000
 -0.000   0.000  -0.328  -0.001  -0.000
 -0.000   0.000  -0.001  -0.329   0.000
 -0.000   0.000  -0.000   0.000  -0.328
 pseudopotential strength for first ion, spin component:           2
  1.177  -0.049  -0.000  -0.000  -0.000
 -0.049  -0.051   0.000   0.000   0.000
 -0.000   0.000  -0.329  -0.001   0.000
 -0.000   0.000  -0.001  -0.329   0.000
 -0.000   0.000   0.000   0.000  -0.328
 total augmentation occupancy for first ion, spin component:           1
  0.640  -0.082   0.000   0.000   0.000
 -0.082   0.012   0.000   0.000   0.000
  0.000   0.000   0.071  -0.008   0.000
  0.000   0.000  -0.008   0.079   0.000
  0.000   0.000   0.000   0.000   0.079
 total augmentation occupancy for first ion, spin component:           2
  0.001  -0.000   0.000   0.000   0.000
 -0.000   0.000   0.000   0.000   0.000
  0.000   0.000   0.000   0.000   0.000
  0.000   0.000   0.000   0.000   0.000
  0.000   0.000   0.000   0.000   0.000


------------------------ aborting loop because EDIFF is reached ----------------------------------------


 


 total charge     
 
# of ion     s       p       d       tot
----------------------------------------
  1        0.080   0.165   0.000   0.245
  2        0.096   0.197   0.000   0.292
  3        0.423   0.654   7.282   8.360
  4        0.411   0.573   8.278   9.263
  5        1.563   3.433   0.000   4.995
  6        1.557   3.449   0.000   5.006
  7        1.563   3.433   0.000   4.995
  8        1.557   3.449   0.000   5.006
------------------------------------------------
tot        7.249  15.352  15.561  38.162
 


 magnetization (x)
 
# of ion     s       p       d       tot
----------------------------------------
  1        0.000   0.000   0.000   0.001
  2        0.003   0.003   0.000   0.007
  3       -0.001   0.001  -0.193  -0.193
  4        0.008   0.006   1.393   1.407
  5        0.003  -0.119   0.000  -0.116
  6        0.003   0.019   0.000   0.022
  7        0.003  -0.119   0.000  -0.116
  8        0.003   0.019   0.000   0.022
------------------------------------------------
tot        0.024  -0.190   1.201   1.034
 
    CHARGE:  cpu time    0.0950: real time    0.0949
    FORLOC:  cpu time    0.0010: real time    0.0007
    FORNL :  cpu time    0.9419: real time    0.9421
    STRESS:  cpu time    2.8806: real time    2.8799
    FORCOR:  cpu time    0.0180: real time    0.0183
    FORHAR:  cpu time    0.0030: real time    0.0027
    MIXING:  cpu time    0.0010: real time    0.0005
    OFIELD:  cpu time    0.0000: real time    0.0000

  FORCE on cell =-STRESS in cart. coord.  units (eV):
  Direction    XX          YY          ZZ          XY          YZ          ZX
  --------------------------------------------------------------------------------------
  Alpha Z   199.51517   199.51517   199.51517
  Ewald    -469.26678  -501.91051 -1654.12316    -0.00000   -16.84645    -0.00000
  Hartree   713.74985   699.12688  -214.97981    -0.00000    -5.98871    -0.00000
  E(xc)    -225.79221  -225.77686  -226.15905     0.00000    -0.00252    -0.00000
  Local    -875.70511  -833.01621  1226.87676     0.00000    19.53981     0.00000
  n-local  -150.86685  -151.70841  -153.21347    -0.29289    -0.79719     0.04193
  augment   126.99188   127.79141   129.31273     0.00000     0.73636     0.00000
  Kinetic   681.54953   686.18919   692.81331    -0.76347     3.47768     0.14603
  Fock        0.00000     0.00000     0.00000     0.00000     0.00000     0.00000
  -------------------------------------------------------------------------------------
  Total       0.17547     0.21065     0.04249     0.00000     0.11898     0.00000
  in kB       4.18002     5.01807     1.01219     0.00000     2.83441     0.00000
  external pressure =        3.40 kB  Pullay stress =        0.00 kB


 VOLUME and BASIS-vectors are now :
 -----------------------------------------------------------------------------
  energy-cutoff  :      520.00
  volume of cell :       67.26
      direct lattice vectors                 reciprocal lattice vectors
     2.847382526  0.000000000  0.000000000     0.351199739  0.000000000  0.000000000
     0.000000000  4.999349434  0.014954081     0.000000000  0.200239977 -0.071526800
     0.000000000  1.689510625  4.729801530     0.000000000 -0.000633093  0.211651506

  length of vectors
     2.847382526  4.999371799  5.022496259     0.351199739  0.212631446  0.211652453


 FORCES acting on ions
    electron-ion (+dipol)            ewald-force                    non-local-force                 convergence-correction
 -----------------------------------------------------------------------------------------------
   -.249E-15 0.168E-14 0.287E-14   0.192E-15 -.178E-14 0.000E+00   0.000E+00 0.000E+00 0.000E+00   0.150E-16 -.434E-15 0.243E-14
   -.692E-15 0.154E-12 0.366E-12   0.114E-14 0.355E-14 0.355E-14   0.000E+00 0.000E+00 0.000E+00   0.183E-16 0.456E-15 0.230E-14
   -.682E-14 -.106E-12 -.119E-12   -.250E-14 0.284E-13 0.568E-13   0.000E+00 0.155E-24 0.000E+00   -.202E-13 0.237E-13 -.960E-13
   0.278E-12 0.630E-12 -.609E-11   -.527E-14 0.568E-13 0.426E-13   0.000E+00 0.000E+00 0.000E+00   0.257E-14 0.257E-13 -.910E-13
   -.103E-13 -.480E+01 -.288E+03   -.544E-14 0.554E+01 0.301E+03   0.139E-16 -.701E+00 -.127E+02   0.811E-14 -.232E-01 0.172E-02
   0.921E-13 -.144E+02 0.288E+03   -.303E-15 0.169E+02 -.300E+03   0.000E+00 -.249E+01 0.119E+02   0.105E-13 -.111E-01 0.976E-02
   -.274E-14 0.480E+01 0.288E+03   0.745E-15 -.554E+01 -.301E+03   -.139E-16 0.701E+00 0.127E+02   0.358E-14 0.232E-01 -.172E-02
   0.818E-13 0.144E+02 -.288E+03   0.773E-14 -.169E+02 0.300E+03   0.000E+00 0.249E+01 -.119E+02   0.675E-14 0.111E-01 -.976E-02
 -----------------------------------------------------------------------------------------------
   0.431E-12 0.208E-11 -.858E-11   -.371E-14 0.000E+00 -.568E-13   0.000E+00 0.000E+00 0.000E+00   0.113E-13 0.549E-13 -.255E-12
 
 
 POSITION                                       TOTAL-FORCE (eV/Angst)
 -----------------------------------------------------------------------------------
      0.00000     -0.00000     -0.00000         0.000000      0.000000     -0.000000
      1.42369      2.49967      0.00748         0.000000      0.000000     -0.000000
      0.00000      3.34443      2.37238         0.000000      0.000000     -0.000000
      1.42369      0.84476      2.36490         0.000000      0.000000     -0.000000
      0.00000      4.95875      3.39706         0.000000      0.018096     -0.028042
      1.42369      4.09988      1.30005         0.000000     -0.008932     -0.073905
     -0.00000      1.73011      1.34769        -0.000000     -0.018096      0.028042
      1.42369      2.58898      3.44471         0.000000      0.008932      0.073905
 -----------------------------------------------------------------------------------
    total drift:                                0.000000      0.000000     -0.000000


--------------------------------------------------------------------------------------------------------



  FREE ENERGIE OF THE ION-ELECTRON SYSTEM (eV)
  ---------------------------------------------------
  free  energy   TOTEN  =       -42.64542034 eV

  energy  without entropy=      -42.64542034  energy(sigma->0) =      -42.64542034
 
 d Force = 0.5423407E-03[ 0.150E-03, 0.935E-03]  d Energy = 0.1069148E-02-0.527E-03
 d Force = 0.3348041E+01[ 0.334E+01, 0.336E+01]  d Ewald  = 0.1056417E+01 0.229E+01


--------------------------------------------------------------------------------------------------------


    POTLOK:  cpu time    0.0250: real time    0.0253


--------------------------------------------------------------------------------------------------------




--------------------------------------------------------------------------------------------------------


  
 reached required accuracy - stopping structural energy minimisation
     LOOP+:  cpu time   24.6163: real time   24.6228
    4ORBIT:  cpu time    0.0000: real time    0.0000
 


 total charge     
 
# of ion     s       p       d       tot
----------------------------------------
  1        0.080   0.165   0.000   0.245
  2        0.096   0.197   0.000   0.292
  3        0.423   0.654   7.282   8.360
  4        0.411   0.573   8.278   9.263
  5        1.563   3.433   0.000   4.995
  6        1.557   3.449   0.000   5.006
  7        1.563   3.433   0.000   4.995
  8        1.557   3.449   0.000   5.006
------------------------------------------------
tot        7.249  15.352  15.561  38.162
 


 magnetization (x)
 
# of ion     s       p       d       tot
----------------------------------------
  1        0.000   0.000   0.000   0.001
  2        0.003   0.003   0.000   0.007
  3       -0.001   0.001  -0.193  -0.193
  4        0.008   0.006   1.393   1.407
  5        0.003  -0.119   0.000  -0.116
  6        0.003   0.019   0.000   0.022
  7        0.003  -0.119   0.000  -0.116
  8        0.003   0.019   0.000   0.022
------------------------------------------------
tot        0.024  -0.190   1.201   1.034
 
 BZINTS: Fermi energy:  3.145207; 45.000000 electrons
         Band energy:-117.426945;  BLOECHL correction: -0.009870

 total amount of memory used by VASP on root node    43688. kBytes
========================================================================

   base      :      30000. kBytes
   nonlr-proj:       4664. kBytes
   fftplans  :        397. kBytes
   grid      :       3735. kBytes
   one-center:        248. kBytes
   wavefun   :       4644. kBytes
 
  
  
 General timing and accounting informations for this job:
 ========================================================
  
                  Total CPU time used (sec):      297.655
                            User time (sec):      296.510
                          System time (sec):        1.145
                         Elapsed time (sec):      298.226
  
                   Maximum memory used (kb):       81984.
                   Average memory used (kb):           0.
  
                          Minor page faults:        74720
                          Major page faults:            0
                 Voluntary context switches:         2704
