       N       E                     dE             d eps       ncg     rms          rms(c)
DAV:   1     0.720920639460E+03    0.72092E+03   -0.39505E+04 23792   0.206E+03
DAV:   2     0.140558912071E+02   -0.70686E+03   -0.69009E+03 24847   0.592E+02
DAV:   3    -0.396967438598E+02   -0.53753E+02   -0.52177E+02 28450   0.175E+02
DAV:   4    -0.420097833785E+02   -0.23130E+01   -0.23029E+01 33060   0.282E+01
DAV:   5    -0.421195961945E+02   -0.10981E+00   -0.10980E+00 28070   0.403E+00    0.193E+01
RMM:   6    -0.411010816643E+02    0.10185E+01   -0.22766E+01 21317   0.400E+01    0.227E+01
RMM:   7    -0.382069862425E+02    0.28941E+01   -0.54480E+00 21879   0.195E+01    0.738E+00
RMM:   8    -0.379619968414E+02    0.24499E+00   -0.10300E+00 21756   0.529E+00    0.422E+00
RMM:   9    -0.379490378423E+02    0.12959E-01   -0.19877E-01 22036   0.371E+00    0.240E+00
RMM:  10    -0.379932912710E+02   -0.44253E-01   -0.62436E-02 26148   0.166E+00    0.200E+00
RMM:  11    -0.380178534809E+02   -0.24562E-01   -0.40803E-02 22968   0.158E+00    0.131E+00
RMM:  12    -0.380244862329E+02   -0.66328E-02   -0.16767E-02 23478   0.107E+00    0.583E-01
RMM:  13    -0.380220478894E+02    0.24383E-02   -0.62835E-03 21917   0.488E-01    0.295E-01
RMM:  14    -0.380215211988E+02    0.52669E-03   -0.49765E-03 22520   0.376E-01    0.189E-01
RMM:  15    -0.380216298325E+02   -0.10863E-03   -0.11641E-04 11755   0.149E-01
   1 F= -.38021630E+02 E0= -.38021630E+02  d E =-.380216E+02  mag=     0.0002
       N       E                     dE             d eps       ncg     rms          rms(c)
DAV:   1    -0.438777832225E+02   -0.58563E+01   -0.18523E+02 21607   0.146E+02    0.222E+01
RMM:   2    -0.416414618929E+02    0.22363E+01   -0.60367E+01 21598   0.716E+01    0.260E+01
RMM:   3    -0.385607723060E+02    0.30807E+01   -0.10185E+01 22316   0.273E+01    0.710E+00
RMM:   4    -0.384479416454E+02    0.11283E+00   -0.60028E-01 23780   0.409E+00    0.405E+00
RMM:   5    -0.383688246559E+02    0.79117E-01   -0.12328E-01 22319   0.299E+00    0.228E+00
RMM:   6    -0.383484030689E+02    0.20422E-01   -0.10148E-01 23144   0.167E+00    0.592E-01
RMM:   7    -0.383446283529E+02    0.37747E-02   -0.11900E-02 22313   0.844E-01    0.321E-01
RMM:   8    -0.383446391204E+02   -0.10767E-04   -0.33393E-03 22066   0.362E-01
   2 F= -.38344639E+02 E0= -.38344639E+02  d E =-.323009E+00  mag=     0.0012
       N       E                     dE             d eps       ncg     rms          rms(c)
DAV:   1    -0.384976597288E+02   -0.15303E+00   -0.50569E+00 24132   0.255E+01    0.413E+00
RMM:   2    -0.384533930024E+02    0.44267E-01   -0.17169E+00 21430   0.124E+01    0.517E+00
RMM:   3    -0.383491502841E+02    0.10424E+00   -0.28127E-01 22393   0.448E+00    0.114E+00
RMM:   4    -0.383444420402E+02    0.47082E-02   -0.25376E-02 20708   0.699E-01    0.743E-01
RMM:   5    -0.383420659856E+02    0.23761E-02   -0.27806E-03 19063   0.436E-01    0.436E-01
RMM:   6    -0.383415586017E+02    0.50738E-03   -0.22548E-03 18594   0.333E-01    0.117E-01
RMM:   7    -0.383413297006E+02    0.22890E-03   -0.40469E-04 11622   0.168E-01
   3 F= -.38341330E+02 E0= -.38341330E+02  d E =-.319700E+00  mag=    -0.0003
       N       E                     dE             d eps       ncg     rms          rms(c)
DAV:   1    -0.388080329250E+02   -0.46647E+00   -0.81495E+01 21332   0.607E+01    0.596E+00
RMM:   2    -0.386732177365E+02    0.13482E+00   -0.26112E+00 21729   0.123E+01    0.369E+00
RMM:   3    -0.385461800213E+02    0.12704E+00   -0.32841E-01 22275   0.470E+00    0.268E+00
RMM:   4    -0.384991797164E+02    0.47000E-01   -0.11575E-01 21500   0.250E+00    0.121E+00
RMM:   5    -0.385006396676E+02   -0.14600E-02   -0.13240E-02 24223   0.889E-01    0.571E-01
RMM:   6    -0.385023192537E+02   -0.16796E-02   -0.34033E-03 21820   0.421E-01    0.345E-01
RMM:   7    -0.385034394984E+02   -0.11202E-02   -0.15715E-03 15069   0.358E-01    0.175E-01
RMM:   8    -0.385038210668E+02   -0.38157E-03   -0.51029E-04 12394   0.206E-01
   4 F= -.38503821E+02 E0= -.38503821E+02  d E =-.162491E+00  mag=     0.0000
       N       E                     dE             d eps       ncg     rms          rms(c)
DAV:   1    -0.385081677774E+02   -0.47283E-02   -0.61942E-01 24087   0.528E+00    0.501E-01
RMM:   2    -0.385071430197E+02    0.10248E-02   -0.19676E-02 21693   0.102E+00    0.299E-01
RMM:   3    -0.385058275872E+02    0.13154E-02   -0.20257E-03 17756   0.348E-01    0.182E-01
RMM:   4    -0.385056337191E+02    0.19387E-03   -0.83577E-04 13044   0.234E-01    0.101E-01
RMM:   5    -0.385056346099E+02   -0.89074E-06   -0.24634E-04 11404   0.168E-01    0.504E-02
RMM:   6    -0.385056511575E+02   -0.16548E-04   -0.97364E-05 11489   0.718E-02
   5 F= -.38505651E+02 E0= -.38505651E+02  d E =-.164321E+00  mag=    -0.0000
       N       E                     dE             d eps       ncg     rms          rms(c)
DAV:   1    -0.420963785893E+02   -0.35907E+01   -0.66716E+01 21337   0.107E+02    0.224E+01
RMM:   2    -0.421012820632E+02   -0.49035E-02   -0.35085E+01 21902   0.522E+01    0.243E+01
RMM:   3    -0.387525589763E+02    0.33487E+01   -0.72729E+00 22393   0.223E+01    0.643E+00
RMM:   4    -0.386453262583E+02    0.10723E+00   -0.73562E-01 21792   0.402E+00    0.401E+00
RMM:   5    -0.386125247186E+02    0.32802E-01   -0.41445E-02 22161   0.172E+00    0.249E+00
RMM:   6    -0.386001271416E+02    0.12398E-01   -0.39910E-02 22156   0.163E+00    0.624E-01
RMM:   7    -0.385964023558E+02    0.37248E-02   -0.22677E-02 22605   0.918E-01    0.316E-01
RMM:   8    -0.385965486257E+02   -0.14627E-03   -0.52532E-03 23597   0.451E-01    0.174E-01
RMM:   9    -0.385965227525E+02    0.25873E-04   -0.40558E-04 12440   0.211E-01
   6 F= -.38596523E+02 E0= -.38596523E+02  d E =-.908716E-01  mag=    -0.0000
       N       E                     dE             d eps       ncg     rms          rms(c)
DAV:   1    -0.386487899388E+02   -0.52241E-01   -0.98904E-01 22690   0.127E+01    0.234E+00
RMM:   2    -0.386368523979E+02    0.11938E-01   -0.48905E-01 21920   0.677E+00    0.284E+00
RMM:   3    -0.385987380870E+02    0.38114E-01   -0.10408E-01 21350   0.271E+00    0.534E-01
RMM:   4    -0.385973242579E+02    0.14138E-02   -0.96166E-03 19187   0.422E-01    0.307E-01
RMM:   5    -0.385966101665E+02    0.71409E-03   -0.65791E-04 11847   0.234E-01    0.177E-01
RMM:   6    -0.385965124524E+02    0.97714E-04   -0.90406E-04 12010   0.253E-01
   7 F= -.38596512E+02 E0= -.38596512E+02  d E =-.908613E-01  mag=    -0.0000
       N       E                     dE             d eps       ncg     rms          rms(c)
DAV:   1    -0.386292627575E+02   -0.32653E-01   -0.15152E+00 21607   0.101E+01    0.152E+00
RMM:   2    -0.386138215789E+02    0.15441E-01   -0.94338E-02 21326   0.302E+00    0.125E+00
RMM:   3    -0.386069906855E+02    0.68309E-02   -0.21953E-02 21005   0.116E+00    0.659E-01
RMM:   4    -0.386026200299E+02    0.43707E-02   -0.76291E-03 19627   0.597E-01    0.196E-01
RMM:   5    -0.386026128423E+02    0.71876E-05   -0.85530E-04 13049   0.217E-01    0.134E-01
RMM:   6    -0.386026454556E+02   -0.32613E-04   -0.31786E-04 11444   0.188E-01
   8 F= -.38602645E+02 E0= -.38602645E+02  d E =-.613300E-02  mag=    -0.0000
       N       E                     dE             d eps       ncg     rms          rms(c)
DAV:   1    -0.386206554959E+02   -0.18043E-01   -0.97883E-01 21802   0.810E+00    0.121E+00
RMM:   2    -0.386108525983E+02    0.98029E-02   -0.61516E-02 21324   0.243E+00    0.101E+00
RMM:   3    -0.386063255708E+02    0.45270E-02   -0.14249E-02 20875   0.939E-01    0.521E-01
RMM:   4    -0.386035992985E+02    0.27263E-02   -0.49597E-03 18990   0.475E-01    0.166E-01
RMM:   5    -0.386036112191E+02   -0.11921E-04   -0.51717E-04 11837   0.181E-01    0.112E-01
RMM:   6    -0.386036534417E+02   -0.42223E-04   -0.25478E-04 11423   0.167E-01
   9 F= -.38603653E+02 E0= -.38603653E+02  d E =-.714099E-02  mag=     0.0000
