       N       E                     dE             d eps       ncg     rms          rms(c)
DAV:   1     0.756622727210E+03    0.75662E+03   -0.33865E+04 20800   0.200E+03
DAV:   2     0.247707551049E+02   -0.73185E+03   -0.70451E+03 21756   0.584E+02
DAV:   3    -0.544918862336E+02   -0.79263E+02   -0.77561E+02 26467   0.192E+02
DAV:   4    -0.587073869321E+02   -0.42155E+01   -0.41944E+01 30210   0.388E+01
DAV:   5    -0.589341357001E+02   -0.22675E+00   -0.22574E+00 31966   0.693E+00    0.366E+01
RMM:   6    -0.674029173707E+02   -0.84688E+01   -0.25921E+02 26153   0.108E+02    0.114E+02
RMM:   7    -0.512863018720E+02    0.16117E+02   -0.29373E+01 20960   0.449E+01    0.387E+01
RMM:   8    -0.446529668355E+02    0.66333E+01   -0.24104E+01 20401   0.348E+01    0.997E+00
RMM:   9    -0.452836098367E+02   -0.63064E+00   -0.24912E+00 22879   0.964E+00    0.728E+00
RMM:  10    -0.453752109037E+02   -0.91601E-01   -0.37479E-01 23933   0.410E+00    0.437E+00
RMM:  11    -0.455175130484E+02   -0.14230E+00   -0.18050E-01 23931   0.255E+00    0.251E+00
RMM:  12    -0.455491978331E+02   -0.31685E-01   -0.94672E-02 24222   0.198E+00    0.156E+00
RMM:  13    -0.455576378468E+02   -0.84400E-02   -0.25245E-02 24028   0.960E-01    0.515E-01
RMM:  14    -0.455631394176E+02   -0.55016E-02   -0.92200E-03 24132   0.513E-01    0.390E-01
RMM:  15    -0.455643495408E+02   -0.12101E-02   -0.36358E-03 20720   0.336E-01    0.219E-01
RMM:  16    -0.455632504604E+02    0.10991E-02   -0.20152E-03 18317   0.245E-01    0.201E-01
RMM:  17    -0.455638491620E+02   -0.59870E-03   -0.41042E-04 12906   0.178E-01    0.373E-02
RMM:  18    -0.455638575449E+02   -0.83828E-05   -0.85461E-04 14907   0.163E-01
   1 F= -.45563858E+02 E0= -.45563858E+02  d E =-.455639E+02  mag=    -1.1234
       N       E                     dE             d eps       ncg     rms          rms(c)
DAV:   1    -0.472167493557E+02   -0.16529E+01   -0.24224E+02 20313   0.117E+02    0.131E+01
RMM:   2    -0.466171275074E+02    0.59962E+00   -0.18680E+01 20735   0.347E+01    0.111E+01
RMM:   3    -0.462922860358E+02    0.32484E+00   -0.15578E+00 24888   0.827E+00    0.457E+00
RMM:   4    -0.461884602880E+02    0.10383E+00   -0.29429E-01 22478   0.434E+00    0.239E+00
RMM:   5    -0.461564289317E+02    0.32031E-01   -0.61846E-02 24797   0.156E+00    0.147E+00
RMM:   6    -0.461492135478E+02    0.72154E-02   -0.26256E-02 25559   0.926E-01    0.424E-01
RMM:   7    -0.461484807552E+02    0.73279E-03   -0.59957E-03 23544   0.522E-01    0.168E-01
RMM:   8    -0.461485631851E+02   -0.82430E-04   -0.30738E-03 20320   0.300E-01
   2 F= -.46148563E+02 E0= -.46148563E+02  d E =-.584706E+00  mag=    -1.0000
       N       E                     dE             d eps       ncg     rms          rms(c)
DAV:   1    -0.461935024623E+02   -0.45022E-01   -0.74629E+00 21492   0.213E+01    0.245E+00
RMM:   2    -0.461785907384E+02    0.14912E-01   -0.54959E-01 21038   0.611E+00    0.234E+00
RMM:   3    -0.461629715780E+02    0.15619E-01   -0.45926E-02 24133   0.141E+00    0.876E-01
RMM:   4    -0.461602575046E+02    0.27141E-02   -0.10505E-02 22290   0.838E-01    0.521E-01
RMM:   5    -0.461593463305E+02    0.91117E-03   -0.23574E-03 20496   0.280E-01    0.304E-01
RMM:   6    -0.461591378924E+02    0.20844E-03   -0.82443E-04 13141   0.201E-01
   3 F= -.46159138E+02 E0= -.46159138E+02  d E =-.595280E+00  mag=    -1.0000
       N       E                     dE             d eps       ncg     rms          rms(c)
DAV:   1    -0.479242591155E+02   -0.17649E+01   -0.77733E+01 20304   0.913E+01    0.144E+01
RMM:   2    -0.470629557256E+02    0.86130E+00   -0.13802E+01 20822   0.324E+01    0.163E+01
RMM:   3    -0.463349187974E+02    0.72804E+00   -0.18190E+00 24864   0.833E+00    0.483E+00
RMM:   4    -0.462675267936E+02    0.67392E-01   -0.34468E-01 22875   0.404E+00    0.246E+00
RMM:   5    -0.462470369359E+02    0.20490E-01   -0.50694E-02 27652   0.128E+00    0.159E+00
RMM:   6    -0.462427556662E+02    0.42813E-02   -0.86178E-03 24131   0.679E-01    0.691E-01
RMM:   7    -0.462419062962E+02    0.84937E-03   -0.53768E-03 22975   0.565E-01    0.137E-01
RMM:   8    -0.462418779270E+02    0.28369E-04   -0.19377E-03 18409   0.295E-01
   4 F= -.46241878E+02 E0= -.46241878E+02  d E =-.827400E-01  mag=    -1.0000
       N       E                     dE             d eps       ncg     rms          rms(c)
DAV:   1    -0.462540585438E+02   -0.12152E-01   -0.48285E-01 21686   0.702E+00    0.995E-01
RMM:   2    -0.462472537151E+02    0.68048E-02   -0.80342E-02 20439   0.247E+00    0.105E+00
RMM:   3    -0.462441384956E+02    0.31152E-02   -0.10795E-02 22371   0.637E-01    0.334E-01
RMM:   4    -0.462436464419E+02    0.49205E-03   -0.15094E-03 14934   0.303E-01    0.165E-01
RMM:   5    -0.462435398364E+02    0.10661E-03   -0.25836E-04 10571   0.140E-01    0.118E-01
RMM:   6    -0.462435125052E+02    0.27331E-04   -0.82395E-05 10478   0.704E-02
   5 F= -.46243513E+02 E0= -.46243513E+02  d E =-.843746E-01  mag=    -1.0000
       N       E                     dE             d eps       ncg     rms          rms(c)
DAV:   1    -0.464075266750E+02   -0.16399E+00   -0.67810E+00 20193   0.272E+01    0.430E+00
RMM:   2    -0.463169498621E+02    0.90577E-01   -0.11965E+00 20893   0.976E+00    0.442E+00
RMM:   3    -0.462666157992E+02    0.50334E-01   -0.15035E-01 24621   0.241E+00    0.138E+00
RMM:   4    -0.462578863352E+02    0.87295E-02   -0.30520E-02 20559   0.137E+00    0.804E-01
RMM:   5    -0.462552023302E+02    0.26840E-02   -0.51753E-03 23696   0.406E-01    0.442E-01
RMM:   6    -0.462544880170E+02    0.71431E-03   -0.15367E-03 15620   0.286E-01    0.161E-01
RMM:   7    -0.462544549326E+02    0.33084E-04   -0.58342E-04 11045   0.220E-01
   6 F= -.46254455E+02 E0= -.46254455E+02  d E =-.109424E-01  mag=    -1.0000
       N       E                     dE             d eps       ncg     rms          rms(c)
DAV:   1    -0.462602289794E+02   -0.57410E-02   -0.23126E-01 20355   0.494E+00    0.768E-01
RMM:   2    -0.462569646576E+02    0.32643E-02   -0.38799E-02 20297   0.176E+00    0.765E-01
RMM:   3    -0.462555103924E+02    0.14543E-02   -0.48436E-03 21544   0.438E-01    0.246E-01
RMM:   4    -0.462551767494E+02    0.33364E-03   -0.76104E-04 11379   0.256E-01    0.151E-01
RMM:   5    -0.462551073277E+02    0.69422E-04   -0.21472E-04 10283   0.118E-01    0.985E-02
RMM:   6    -0.462550814472E+02    0.25881E-04   -0.65321E-05 10240   0.705E-02
   7 F= -.46255081E+02 E0= -.46255081E+02  d E =-.115689E-01  mag=    -1.0000
