       N       E                     dE             d eps       ncg     rms          rms(c)
DAV:   1     0.826636619193E+02    0.82664E+02   -0.26708E+04 13824   0.107E+03
DAV:   2    -0.507649303036E+02   -0.13343E+03   -0.13324E+03 17184   0.137E+02
DAV:   3    -0.523374328916E+02   -0.15725E+01   -0.15711E+01 17952   0.197E+01
DAV:   4    -0.523395426509E+02   -0.21098E-02   -0.21084E-02 22128   0.723E-01
DAV:   5    -0.523395428969E+02   -0.24600E-06   -0.24632E-06 18720   0.609E-03    0.269E+01
RMM:   6    -0.609390235252E+02   -0.85995E+01   -0.69325E+01 14060   0.470E+01    0.357E+01
RMM:   7    -0.438177795448E+02    0.17121E+02   -0.16298E+01 13827   0.180E+01    0.150E+01
RMM:   8    -0.414880114266E+02    0.23298E+01   -0.85871E-01 13827   0.579E+00    0.803E+00
RMM:   9    -0.412754562155E+02    0.21256E+00   -0.16405E-01 14012   0.231E+00    0.356E+00
RMM:  10    -0.414937885305E+02   -0.21833E+00   -0.72444E-02 13861   0.165E+00    0.393E+00
RMM:  11    -0.417477229846E+02   -0.25393E+00   -0.93352E-02 13967   0.188E+00    0.405E+00
RMM:  12    -0.417772553711E+02   -0.29532E-01   -0.19427E-02 13916   0.873E-01    0.270E+00
RMM:  13    -0.418477085887E+02   -0.70453E-01   -0.47382E-02 13992   0.134E+00    0.624E-01
RMM:  14    -0.418597050149E+02   -0.11996E-01   -0.72633E-03 13853   0.578E-01    0.317E-01
RMM:  15    -0.418630405098E+02   -0.33355E-02   -0.16333E-03 12642   0.273E-01    0.145E-01
RMM:  16    -0.418636671033E+02   -0.62659E-03   -0.29463E-04 10078   0.125E-01    0.682E-02
RMM:  17    -0.418640403934E+02   -0.37329E-03   -0.10406E-04  9928   0.661E-02
   1 F= -.41864040E+02 E0= -.41864040E+02  d E =-.418640E+02  mag=     1.0066
       N       E                     dE             d eps       ncg     rms          rms(c)
DAV:   1    -0.451663480534E+02   -0.33027E+01   -0.31220E+02 13872   0.863E+01    0.122E+01
RMM:   2    -0.431623091412E+02    0.20040E+01   -0.68246E+00 13824   0.165E+01    0.615E+00
RMM:   3    -0.432281323229E+02   -0.65823E-01   -0.15088E+00 13991   0.633E+00    0.888E+00
RMM:   4    -0.426578078001E+02    0.57032E+00   -0.42856E-01 14100   0.384E+00    0.342E+00
RMM:   5    -0.425418891936E+02    0.11592E+00   -0.83743E-02 14007   0.170E+00    0.122E+00
RMM:   6    -0.425248168316E+02    0.17072E-01   -0.12224E-02 13860   0.559E-01    0.588E-01
RMM:   7    -0.425208733907E+02    0.39434E-02   -0.30195E-03 13614   0.343E-01    0.285E-01
RMM:   8    -0.425202052312E+02    0.66816E-03   -0.15649E-03 13374   0.228E-01    0.116E-01
RMM:   9    -0.425202832121E+02   -0.77981E-04   -0.10286E-04 10031   0.730E-02
   2 F= -.42520283E+02 E0= -.42520283E+02  d E =-.656243E+00  mag=     1.0001
       N       E                     dE             d eps       ncg     rms          rms(c)
DAV:   1    -0.425512249249E+02   -0.31020E-01   -0.25928E+00 21120   0.850E+00    0.110E+00
RMM:   2    -0.425364685339E+02    0.14756E-01   -0.47311E-02 13864   0.138E+00    0.677E-01
RMM:   3    -0.425344830119E+02    0.19855E-02   -0.12861E-02 13885   0.610E-01    0.667E-01
RMM:   4    -0.425300574329E+02    0.44256E-02   -0.32577E-03 13349   0.333E-01    0.224E-01
RMM:   5    -0.425294139280E+02    0.64350E-03   -0.44640E-04 10405   0.132E-01    0.101E-01
RMM:   6    -0.425292484561E+02    0.16547E-03   -0.10153E-04  9528   0.628E-02
   3 F= -.42529248E+02 E0= -.42529248E+02  d E =-.665208E+00  mag=     1.0000
       N       E                     dE             d eps       ncg     rms          rms(c)
DAV:   1    -0.428968032919E+02   -0.36739E+00   -0.29645E+01 13824   0.274E+01    0.377E+00
RMM:   2    -0.427346859023E+02    0.16212E+00   -0.66354E-01 13824   0.515E+00    0.358E+00
RMM:   3    -0.426776797436E+02    0.57006E-01   -0.19584E-01 13838   0.248E+00    0.247E+00
RMM:   4    -0.426173432246E+02    0.60337E-01   -0.49730E-02 14183   0.130E+00    0.705E-01
RMM:   5    -0.426120195376E+02    0.53237E-02   -0.45811E-03 13551   0.383E-01    0.432E-01
RMM:   6    -0.426100618490E+02    0.19577E-02   -0.14036E-03 12886   0.213E-01    0.111E-01
RMM:   7    -0.426099677548E+02    0.94094E-04   -0.17268E-04  9979   0.906E-02
   4 F= -.42609968E+02 E0= -.42609968E+02  d E =-.807193E-01  mag=     1.0000
       N       E                     dE             d eps       ncg     rms          rms(c)
DAV:   1    -0.427567030096E+02   -0.14664E+00   -0.13351E+01 14112   0.182E+01    0.253E+00
RMM:   2    -0.426885107098E+02    0.68192E-01   -0.30356E-01 13825   0.348E+00    0.257E+00
RMM:   3    -0.426571623915E+02    0.31348E-01   -0.90019E-02 13843   0.167E+00    0.174E+00
RMM:   4    -0.426313005544E+02    0.25862E-01   -0.22730E-02 14164   0.878E-01    0.474E-01
RMM:   5    -0.426284060148E+02    0.28945E-02   -0.20912E-03 12723   0.260E-01    0.281E-01
RMM:   6    -0.426278155006E+02    0.59051E-03   -0.64410E-04 10966   0.151E-01    0.734E-02
RMM:   7    -0.426279688897E+02   -0.15339E-03   -0.10626E-04  9820   0.671E-02
   5 F= -.42627969E+02 E0= -.42627969E+02  d E =-.987204E-01  mag=     1.0000
       N       E                     dE             d eps       ncg     rms          rms(c)
DAV:   1    -0.426525583238E+02   -0.24743E-01   -0.39204E+00 15456   0.889E+00    0.924E-01
RMM:   2    -0.426511968374E+02    0.13615E-02   -0.55665E-02 13826   0.139E+00    0.104E+00
RMM:   3    -0.426428413412E+02    0.83555E-02   -0.10420E-02 13825   0.552E-01    0.642E-01
RMM:   4    -0.426407954833E+02    0.20459E-02   -0.34056E-03 13784   0.341E-01    0.248E-01
RMM:   5    -0.426400366440E+02    0.75884E-03   -0.66225E-04 10653   0.149E-01    0.860E-02
RMM:   6    -0.426400529889E+02   -0.16345E-04   -0.23731E-04  9682   0.929E-02
   6 F= -.42640053E+02 E0= -.42640053E+02  d E =-.120841E-01  mag=     1.0000
       N       E                     dE             d eps       ncg     rms          rms(c)
DAV:   1    -0.426542982792E+02   -0.14262E-01   -0.39522E+00 14592   0.889E+00    0.925E-01
RMM:   2    -0.426537571513E+02    0.54113E-03   -0.58440E-02 13825   0.143E+00    0.110E+00
RMM:   3    -0.426445173397E+02    0.92398E-02   -0.10871E-02 13827   0.564E-01    0.640E-01
RMM:   4    -0.426422951105E+02    0.22222E-02   -0.34591E-03 13781   0.342E-01    0.237E-01
RMM:   5    -0.426415557212E+02    0.73939E-03   -0.61818E-04 10583   0.143E-01    0.101E-01
RMM:   6    -0.426415205693E+02    0.35152E-04   -0.23477E-04  9672   0.937E-02
   7 F= -.42641521E+02 E0= -.42641521E+02  d E =-.135517E-01  mag=     1.0000
       N       E                     dE             d eps       ncg     rms          rms(c)
DAV:   1    -0.426509365241E+02   -0.93808E-02   -0.50996E+00 14208   0.939E+00    0.698E-01
RMM:   2    -0.426469241893E+02    0.40123E-02   -0.42689E-02 13824   0.112E+00    0.349E-01
RMM:   3    -0.426448351596E+02    0.20890E-02   -0.35401E-03 13826   0.340E-01    0.264E-01
RMM:   4    -0.426450413888E+02   -0.20623E-03   -0.11279E-03 11977   0.208E-01    0.219E-01
RMM:   5    -0.426442661521E+02    0.77524E-03   -0.27134E-04  9996   0.101E-01    0.641E-02
RMM:   6    -0.426442222097E+02    0.43942E-04   -0.13832E-04  8449   0.787E-02
   8 F= -.42644222E+02 E0= -.42644222E+02  d E =-.270164E-02  mag=     1.0000
       N       E                     dE             d eps       ncg     rms          rms(c)
DAV:   1    -0.426441844645E+02    0.81688E-04   -0.27269E-03 19584   0.219E-01    0.363E-02
RMM:   2    -0.426442887349E+02   -0.10427E-03   -0.35944E-05  7115   0.372E-02    0.373E-02
RMM:   3    -0.426441759711E+02    0.11276E-03   -0.15125E-05  6093   0.258E-02    0.305E-02
RMM:   4    -0.426441789032E+02   -0.29322E-05   -0.10822E-05  6506   0.242E-02    0.154E-02
RMM:   5    -0.426441574703E+02    0.21433E-04   -0.55879E-06  4219   0.179E-02    0.128E-02
RMM:   6    -0.426441499000E+02    0.75702E-05   -0.84258E-06  6307   0.214E-02
   9 F= -.42644150E+02 E0= -.42644150E+02  d E =-.262933E-02  mag=     1.0000
