 vasp.5.4.1 24Jun15 (build Jan 18 2016 12:20:36) complex                        
  
 executed on           IFC91_ompi date 2016.06.08  21:12:31
 running on   48 total cores
 distrk:  each k-point on   48 cores,    1 groups
 distr:  one band on NCORES_PER_BAND=   1 cores,   48 groups


--------------------------------------------------------------------------------------------------------


 INCAR:
 POTCAR:    PAW_PBE Li 17Jan2003                  
 POTCAR:   PAW_PBE Co 06Sep2000                   
 POTCAR:   PAW_PBE Ni 06Sep2000                   
 POTCAR:   PAW_PBE O 08Apr2002                    

 ----------------------------------------------------------------------------- 
|                                                                             |
|           W    W    AA    RRRRR   N    N  II  N    N   GGGG   !!!           |
|           W    W   A  A   R    R  NN   N  II  NN   N  G    G  !!!           |
|           W    W  A    A  R    R  N N  N  II  N N  N  G       !!!           |
|           W WW W  AAAAAA  RRRRR   N  N N  II  N  N N  G  GGG   !            |
|           WW  WW  A    A  R   R   N   NN  II  N   NN  G    G                |
|           W    W  A    A  R    R  N    N  II  N    N   GGGG   !!!           |
|                                                                             |
|      For optimal performance we recommend to set                            |
|        NCORE= 4 - approx SQRT( number of cores)                             |
|      NCORE specifies how many cores store one orbital (NPAR=cpu/NCORE).     |
|      This setting can  greatly improve the performance of VASP for DFT.     |
|      The default, NPAR=number of cores might be grossly inefficient         |
|      on modern multi-core architectures or massively parallel machines.     |
|      Do your own testing !!!!                                               |
|      Unfortunately you need to use the default for GW and RPA calculations. |
|      (for HF NCORE is supported but not extensively tested yet)             |
|                                                                             |
 ----------------------------------------------------------------------------- 

 POTCAR:    PAW_PBE Li 17Jan2003                  
   VRHFIN =Li: s1p0                                                             
   LEXCH  = PE                                                                  
   EATOM  =     5.3001 eV,     .3895 Ry                                         
                                                                                
   TITEL  = PAW_PBE Li 17Jan2003                                                
   LULTRA =        F    use ultrasoft PP ?                                      
   IUNSCR =        1    unscreen: 0-lin 1-nonlin 2-no                           
   RPACOR =    1.500    partial core radius                                     
   POMASS =    7.010; ZVAL   =    1.000    mass and valenz                      
   RCORE  =    2.050    outmost cutoff radius                                   
   RWIGS  =    2.600; RWIGS  =    1.376    wigner-seitz radius (au A)           
   ENMAX  =  140.000; ENMIN  =  100.000 eV                                      
   ICORE  =        2    local potential                                         
   LCOR   =        T    correct aug charges                                     
   LPAW   =        T    paw PP                                                  
   EAUG   =  331.638                                                            
   DEXC   =    -.010                                                            
   RMAX   =    4.263    core radius for proj-oper                               
   RAUG   =    1.300    factor for augmentation sphere                          
   RDEP   =    2.094    radius for radial grids                                 
   QCUT   =   -2.932; QGAM   =    5.865    optimization parameters              
                                                                                
   Description                                                                  
     l     E      TYP  RCUT    TYP  RCUT                                        
     0   .000     23  2.050                                                     
     0  2.000     23  2.050                                                     
     1   .000     23  2.050                                                     
     2   .000     23  2.050                                                     
  local pseudopotential read in
  partial core-charges read in
  atomic valenz-charges read in
  non local Contribution for L=           0  read in
    real space projection operators read in
  non local Contribution for L=           0  read in
    real space projection operators read in
  non local Contribution for L=           1  read in
    real space projection operators read in
    PAW grid and wavefunctions read in
 
   number of l-projection  operators is LMAX  =           3
   number of lm-projection operators is LMMAX =           5
 
 POTCAR:   PAW_PBE Co 06Sep2000                   
   VRHFIN =Co: d8 s1                                                            
   LEXCH  = PE                                                                  
   EATOM  =   813.5563 eV,   59.7947 Ry                                         
                                                                                
   TITEL  = PAW_PBE Co 06Sep2000                                                
   LULTRA =        F    use ultrasoft PP ?                                      
   IUNSCR =        1    unscreen: 0-lin 1-nonlin 2-no                           
   RPACOR =    2.000    partial core radius                                     
   POMASS =   58.933; ZVAL   =    9.000    mass and valenz                      
   RCORE  =    2.300    outmost cutoff radius                                   
   RWIGS  =    2.460; RWIGS  =    1.302    wigner-seitz radius (au A)           
   ENMAX  =  267.969; ENMIN  =  200.977 eV                                      
   RCLOC  =    1.697    cutoff for local pot                                    
   LCOR   =        T    correct aug charges                                     
   LPAW   =        T    paw PP                                                  
   EAUG   =  477.818                                                            
   DEXC   =    -.016                                                            
   RMAX   =    2.817    core radius for proj-oper                               
   RAUG   =    1.300    factor for augmentation sphere                          
   RDEP   =    2.393    radius for radial grids                                 
   QCUT   =   -4.438; QGAM   =    8.876    optimization parameters              
                                                                                
   Description                                                                  
     l     E      TYP  RCUT    TYP  RCUT                                        
     2   .000     23  2.300                                                     
     2   .000     23  2.300                                                     
     0   .000     23  2.300                                                     
     0   .000     23  2.300                                                     
     1  -.200     23  2.300                                                     
     1   .000     23  2.300                                                     
     3   .000      7   .000                                                     
  local pseudopotential read in
  partial core-charges read in
  atomic valenz-charges read in
  non local Contribution for L=           2  read in
    real space projection operators read in
  non local Contribution for L=           2  read in
    real space projection operators read in
  non local Contribution for L=           0  read in
    real space projection operators read in
  non local Contribution for L=           0  read in
    real space projection operators read in
  non local Contribution for L=           1  read in
    real space projection operators read in
  non local Contribution for L=           1  read in
    real space projection operators read in
    PAW grid and wavefunctions read in
 
   number of l-projection  operators is LMAX  =           6
   number of lm-projection operators is LMMAX =          18
 
 POTCAR:   PAW_PBE Ni 06Sep2000                   
   VRHFIN =Ni:                                                                  
   LEXCH  = PE                                                                  
   EATOM  =  1077.9025 eV,   79.2236 Ry                                         
                                                                                
   TITEL  = PAW_PBE Ni 06Sep2000                                                
   LULTRA =        F    use ultrasoft PP ?                                      
   IUNSCR =        1    unscreen: 0-lin 1-nonlin 2-no                           
   RPACOR =    2.000    partial core radius                                     
   POMASS =   58.690; ZVAL   =   10.000    mass and valenz                      
   RCORE  =    2.300    outmost cutoff radius                                   
   RWIGS  =    2.430; RWIGS  =    1.286    wigner-seitz radius (au A)           
   ENMAX  =  269.533; ENMIN  =  202.150 eV                                      
   RCLOC  =    1.681    cutoff for local pot                                    
   LCOR   =        T    correct aug charges                                     
   LPAW   =        T    paw PP                                                  
   EAUG   =  544.565                                                            
   DEXC   =    -.009                                                            
   RMAX   =    2.808    core radius for proj-oper                               
   RAUG   =    1.300    factor for augmentation sphere                          
   RDEP   =    2.390    radius for radial grids                                 
   QCUT   =   -4.451; QGAM   =    8.902    optimization parameters              
                                                                                
   Description                                                                  
     l     E      TYP  RCUT    TYP  RCUT                                        
     2   .000     23  2.300                                                     
     2   .000     23  2.300                                                     
     0   .000     23  2.300                                                     
     0   .000     23  2.300                                                     
     1  -.200     23  2.300                                                     
     1   .000     23  2.300                                                     
     3   .000      7   .000                                                     
  local pseudopotential read in
  partial core-charges read in
  atomic valenz-charges read in
  non local Contribution for L=           2  read in
    real space projection operators read in
  non local Contribution for L=           2  read in
    real space projection operators read in
  non local Contribution for L=           0  read in
    real space projection operators read in
  non local Contribution for L=           0  read in
    real space projection operators read in
  non local Contribution for L=           1  read in
    real space projection operators read in
  non local Contribution for L=           1  read in
    real space projection operators read in
    PAW grid and wavefunctions read in
 
   number of l-projection  operators is LMAX  =           6
   number of lm-projection operators is LMMAX =          18
 
 POTCAR:   PAW_PBE O 08Apr2002                    
   VRHFIN =O: s2p4                                                              
   LEXCH  = PE                                                                  
   EATOM  =   432.3788 eV,   31.7789 Ry                                         
                                                                                
   TITEL  = PAW_PBE O 08Apr2002                                                 
   LULTRA =        F    use ultrasoft PP ?                                      
   IUNSCR =        0    unscreen: 0-lin 1-nonlin 2-no                           
   RPACOR =     .000    partial core radius                                     
   POMASS =   16.000; ZVAL   =    6.000    mass and valenz                      
   RCORE  =    1.520    outmost cutoff radius                                   
   RWIGS  =    1.550; RWIGS  =     .820    wigner-seitz radius (au A)           
   ENMAX  =  400.000; ENMIN  =  300.000 eV                                      
   ICORE  =        2    local potential                                         
   LCOR   =        T    correct aug charges                                     
   LPAW   =        T    paw PP                                                  
   EAUG   =  605.392                                                            
   DEXC   =     .000                                                            
   RMAX   =    2.264    core radius for proj-oper                               
   RAUG   =    1.300    factor for augmentation sphere                          
   RDEP   =    1.550    radius for radial grids                                 
   QCUT   =   -5.520; QGAM   =   11.041    optimization parameters              
                                                                                
   Description                                                                  
     l     E      TYP  RCUT    TYP  RCUT                                        
     0   .000     23  1.200                                                     
     0  -.700     23  1.200                                                     
     1   .000     23  1.520                                                     
     1   .600     23  1.520                                                     
     2   .000      7  1.500                                                     
  local pseudopotential read in
  atomic valenz-charges read in
  non local Contribution for L=           0  read in
    real space projection operators read in
  non local Contribution for L=           0  read in
    real space projection operators read in
  non local Contribution for L=           1  read in
    real space projection operators read in
  non local Contribution for L=           1  read in
    real space projection operators read in
    PAW grid and wavefunctions read in
 
   number of l-projection  operators is LMAX  =           4
   number of lm-projection operators is LMMAX =           8
 

 ----------------------------------------------------------------------------- 
|                                                                             |
|  ADVICE TO THIS USER RUNNING 'VASP/VAMP'   (HEAR YOUR MASTER'S VOICE ...):  |
|                                                                             |
|      You have a (more or less) 'small supercell' and for smaller cells      |
|      it is recommended  to use the reciprocal-space projection scheme!      |
|      The real space optimization is not  efficient for small cells and it   |
|      is also less accurate ...                                              |
|      Therefore set LREAL=.FALSE. in the  INCAR file                         |
|                                                                             |
 ----------------------------------------------------------------------------- 

 Optimization of the real space projectors (new method)

 maximal supplied QI-value         = 18.33
 optimisation between [QCUT,QGAM] = [ 11.55, 23.28] = [ 37.34,151.76] Ry 
 Optimized for a Real-space Cutoff    1.14 Angstroem

   l    n(q)    QCUT    max X(q) W(low)/X(q) W(high)/X(q)  e(spline) 
   0      8    11.548    30.666    0.12E-04    0.21E-04    0.93E-08
   0      8    11.548    39.284    0.15E-03    0.55E-04    0.54E-07
   1      7    11.548     4.214    0.21E-03    0.27E-03    0.42E-07
 Optimization of the real space projectors (new method)

 maximal supplied QI-value         = 16.25
 optimisation between [QCUT,QGAM] = [ 11.54, 23.24] = [ 37.28,151.24] Ry 
 Optimized for a Real-space Cutoff    1.53 Angstroem

   l    n(q)    QCUT    max X(q) W(low)/X(q) W(high)/X(q)  e(spline) 
   2     10    11.539     4.599    0.83E-05    0.15E-04    0.45E-07
   2     10    11.539    18.158    0.10E-03    0.14E-03    0.24E-06
   0     11    11.539    15.740    0.19E-04    0.12E-05    0.17E-07
   0     11    11.539    47.662    0.48E-04    0.15E-04    0.31E-06
   1     10    11.539     5.777    0.11E-04    0.46E-05    0.25E-07
   1     10    11.539     8.007    0.46E-04    0.29E-04    0.11E-06
 Optimization of the real space projectors (new method)

 maximal supplied QI-value         = 16.25
 optimisation between [QCUT,QGAM] = [ 11.54, 23.24] = [ 37.28,151.24] Ry 
 Optimized for a Real-space Cutoff    1.49 Angstroem

   l    n(q)    QCUT    max X(q) W(low)/X(q) W(high)/X(q)  e(spline) 
   2      9    11.539     4.811    0.20E-04    0.14E-04    0.45E-07
   2      9    11.539    15.146    0.24E-03    0.12E-03    0.20E-06
   0     10    11.539    14.357    0.18E-04    0.12E-05    0.14E-07
   0     10    11.539    43.282    0.39E-04    0.17E-04    0.23E-06
   1     10    11.539     5.514    0.99E-05    0.13E-04    0.19E-07
   1     10    11.539     7.697    0.38E-04    0.79E-04    0.91E-07
 Optimization of the real space projectors (new method)

 maximal supplied QI-value         = 24.76
 optimisation between [QCUT,QGAM] = [ 11.64, 23.27] = [ 37.91,151.63] Ry 
 Optimized for a Real-space Cutoff    1.08 Angstroem

   l    n(q)    QCUT    max X(q) W(low)/X(q) W(high)/X(q)  e(spline) 
   0      7    11.635     4.192    0.54E-04    0.80E-04    0.26E-07
   0      7    11.635     8.473    0.70E-04    0.40E-03    0.21E-06
   1      7    11.635     2.474    0.39E-04    0.14E-03    0.23E-07
   1      7    11.635     3.912    0.25E-03    0.37E-03    0.22E-06
  PAW_PBE Li 17Jan2003                  :
 energy of atom  1       EATOM=   -5.3001
 kinetic energy error for atom=    0.0000 (will be added to EATOM!!)
 PAW_PBE Co 06Sep2000                   :
 energy of atom  2       EATOM= -813.5563
 kinetic energy error for atom=    0.0028 (will be added to EATOM!!)
 PAW_PBE Ni 06Sep2000                   :
 energy of atom  3       EATOM=-1077.9025
 kinetic energy error for atom=    0.0030 (will be added to EATOM!!)
 PAW_PBE O 08Apr2002                    :
 energy of atom  4       EATOM= -432.3788
 kinetic energy error for atom=    0.0208 (will be added to EATOM!!)
 
 
 POSCAR: Li2 Co1 Ni1 O4                          
  positions in direct lattice
  No initial velocities read in
 exchange correlation table for  LEXCH =        8
   RHO(1)=    0.500       N(1)  =     2000
   RHO(2)=  100.500       N(2)  =     4000
 


--------------------------------------------------------------------------------------------------------


 ion  position               nearest neighbor table
   1  0.500  0.500  0.000-   6 2.05   8 2.05   7 2.06   5 2.06   5 2.06   7 2.06   3 2.89   3 2.89
                             3 2.89   3 2.89   4 2.91   4 2.91   2 2.93   2 2.93   2 2.93   2 2.93
   2  0.000  0.500  0.500-   5 2.05   7 2.05   6 2.06   8 2.06   6 2.06   8 2.06   4 2.89   4 2.89
                             4 2.89   4 2.89   3 2.91   3 2.91   1 2.93   1 2.93   1 2.93   1 2.93
   3  0.000  0.000  0.000-   5 2.05   7 2.05   6 2.06   8 2.06   6 2.06   8 2.06   1 2.89   1 2.89
                             1 2.89   1 2.89   2 2.91   2 2.91   4 2.93   4 2.93   4 2.93   4 2.93
   4  0.500  0.000  0.500-   6 2.05   8 2.05   7 2.06   5 2.06   5 2.06   7 2.06   2 2.89   2 2.89
                             2 2.89   2 2.89   1 2.91   1 2.91   3 2.93   3 2.93   3 2.93   3 2.93
   5  0.000  0.750  0.750-   2 2.05   3 2.05   1 2.06   4 2.06   1 2.06   4 2.06
   6  0.500  0.750  0.250-   1 2.05   4 2.05   3 2.06   2 2.06   2 2.06   3 2.06
   7  0.000  0.250  0.250-   2 2.05   3 2.05   1 2.06   4 2.06   1 2.06   4 2.06
   8  0.500  0.250  0.750-   1 2.05   4 2.05   3 2.06   2 2.06   2 2.06   3 2.06
 
  LATTYP: Found a simple monoclinic cell.
 ALAT       =     8.2146770600
 B/A-ratio  =     0.3552178593
 C/A-ratio  =     1.5361420883
 COS(beta)  =    -0.9729755608
  
  Lattice vectors:
  
 A1 = (   0.0000000000,  -6.6756000000,  -4.7872000000)
 A2 = (  -2.9180000000,   0.0000000000,   0.0000000000)
 A3 = (   0.0000000000,  11.6756000000,   4.7872000000)


Analysis of symmetry for initial positions (statically):
=====================================================================
 Subroutine PRICEL returns:
 Original cell was already a primitive cell.
 

 Routine SETGRP: Setting up the symmetry group for a 
 simple monoclinic supercell.


 Subroutine GETGRP returns: Found  4 space group operations
 (whereof  4 operations were pure point group operations)
 out of a pool of  4 trial point group operations.


The static configuration has the point symmetry C_2h.


Analysis of symmetry for dynamics (positions and initial velocities):
=====================================================================
 Subroutine PRICEL returns:
 Original cell was already a primitive cell.
 

 Routine SETGRP: Setting up the symmetry group for a 
 simple monoclinic supercell.


 Subroutine GETGRP returns: Found  4 space group operations
 (whereof  4 operations were pure point group operations)
 out of a pool of  4 trial point group operations.


The dynamic configuration has the point symmetry C_2h.


Analysis of structural, dynamic, and magnetic symmetry:
=====================================================================
 Subroutine PRICEL returns:
 Original cell was already a primitive cell.
 

 Routine SETGRP: Setting up the symmetry group for a 
 simple monoclinic supercell.


 Subroutine GETGRP returns: Found  4 space group operations
 (whereof  4 operations were pure point group operations)
 out of a pool of  4 trial point group operations.


The magnetic configuration has the point symmetry C_2h.


 Subroutine INISYM returns: Found  4 space group operations
 (whereof  4 operations are pure point group operations),
 and found     1 'primitive' translations

 
 
 KPOINTS: pymatgen generated KPOINTS with grid den

Automatic generation of k-mesh.
Space group operators:
 irot       det(A)        alpha          n_x          n_y          n_z        tau_x        tau_y        tau_z
    1     1.000000     0.000001     1.000000     0.000000     0.000000     0.000000     0.000000     0.000000
    2    -1.000000     0.000001     1.000000     0.000000     0.000000     0.000000     0.000000     0.000000
    3     1.000000   180.000000     1.000000     0.000000     0.000000     0.000000     0.000000     0.000000
    4    -1.000000   180.000000     1.000000     0.000000     0.000000     0.000000     0.000000     0.000000
 
 Subroutine IBZKPT returns following result:
 ===========================================
 
 Found     72 irreducible k-points:
 
 Following reciprocal coordinates:
            Coordinates               Weight
  0.062500  0.083333  0.083333      4.000000
  0.187500  0.083333  0.083333      4.000000
  0.312500  0.083333  0.083333      4.000000
  0.437500  0.083333  0.083333      4.000000
  0.062500  0.250000  0.083333      4.000000
  0.187500  0.250000  0.083333      4.000000
  0.312500  0.250000  0.083333      4.000000
  0.437500  0.250000  0.083333      4.000000
  0.062500  0.416667  0.083333      4.000000
  0.187500  0.416667  0.083333      4.000000
  0.312500  0.416667  0.083333      4.000000
  0.437500  0.416667  0.083333      4.000000
  0.062500 -0.416667  0.083333      4.000000
  0.187500 -0.416667  0.083333      4.000000
  0.312500 -0.416667  0.083333      4.000000
  0.437500 -0.416667  0.083333      4.000000
  0.062500 -0.250000  0.083333      4.000000
  0.187500 -0.250000  0.083333      4.000000
  0.312500 -0.250000  0.083333      4.000000
  0.437500 -0.250000  0.083333      4.000000
  0.062500 -0.083333  0.083333      4.000000
  0.187500 -0.083333  0.083333      4.000000
  0.312500 -0.083333  0.083333      4.000000
  0.437500 -0.083333  0.083333      4.000000
  0.062500  0.083333  0.250000      4.000000
  0.187500  0.083333  0.250000      4.000000
  0.312500  0.083333  0.250000      4.000000
  0.437500  0.083333  0.250000      4.000000
  0.062500  0.250000  0.250000      4.000000
  0.187500  0.250000  0.250000      4.000000
  0.312500  0.250000  0.250000      4.000000
  0.437500  0.250000  0.250000      4.000000
  0.062500  0.416667  0.250000      4.000000
  0.187500  0.416667  0.250000      4.000000
  0.312500  0.416667  0.250000      4.000000
  0.437500  0.416667  0.250000      4.000000
  0.062500 -0.416667  0.250000      4.000000
  0.187500 -0.416667  0.250000      4.000000
  0.312500 -0.416667  0.250000      4.000000
  0.437500 -0.416667  0.250000      4.000000
  0.062500 -0.250000  0.250000      4.000000
  0.187500 -0.250000  0.250000      4.000000
  0.312500 -0.250000  0.250000      4.000000
  0.437500 -0.250000  0.250000      4.000000
  0.062500 -0.083333  0.250000      4.000000
  0.187500 -0.083333  0.250000      4.000000
  0.312500 -0.083333  0.250000      4.000000
  0.437500 -0.083333  0.250000      4.000000
  0.062500  0.083333  0.416667      4.000000
  0.187500  0.083333  0.416667      4.000000
  0.312500  0.083333  0.416667      4.000000
  0.437500  0.083333  0.416667      4.000000
  0.062500  0.250000  0.416667      4.000000
  0.187500  0.250000  0.416667      4.000000
  0.312500  0.250000  0.416667      4.000000
  0.437500  0.250000  0.416667      4.000000
  0.062500  0.416667  0.416667      4.000000
  0.187500  0.416667  0.416667      4.000000
  0.312500  0.416667  0.416667      4.000000
  0.437500  0.416667  0.416667      4.000000
  0.062500 -0.416667  0.416667      4.000000
  0.187500 -0.416667  0.416667      4.000000
  0.312500 -0.416667  0.416667      4.000000
  0.437500 -0.416667  0.416667      4.000000
  0.062500 -0.250000  0.416667      4.000000
  0.187500 -0.250000  0.416667      4.000000
  0.312500 -0.250000  0.416667      4.000000
  0.437500 -0.250000  0.416667      4.000000
  0.062500 -0.083333  0.416667      4.000000
  0.187500 -0.083333  0.416667      4.000000
  0.312500 -0.083333  0.416667      4.000000
  0.437500 -0.083333  0.416667      4.000000
 
 Following cartesian coordinates:
            Coordinates               Weight
  0.021419  0.016667  0.011574      4.000000
  0.064256  0.016667  0.011574      4.000000
  0.107094  0.016667  0.011574      4.000000
  0.149931  0.016667  0.011574      4.000000
  0.021419  0.050000 -0.000093      4.000000
  0.064256  0.050000 -0.000093      4.000000
  0.107094  0.050000 -0.000093      4.000000
  0.149931  0.050000 -0.000093      4.000000
  0.021419  0.083333 -0.011761      4.000000
  0.064256  0.083333 -0.011761      4.000000
  0.107094  0.083333 -0.011761      4.000000
  0.149931  0.083333 -0.011761      4.000000
  0.021419 -0.083333  0.046576      4.000000
  0.064256 -0.083333  0.046576      4.000000
  0.107094 -0.083333  0.046576      4.000000
  0.149931 -0.083333  0.046576      4.000000
  0.021419 -0.050000  0.034908      4.000000
  0.064256 -0.050000  0.034908      4.000000
  0.107094 -0.050000  0.034908      4.000000
  0.149931 -0.050000  0.034908      4.000000
  0.021419 -0.016667  0.023241      4.000000
  0.064256 -0.016667  0.023241      4.000000
  0.107094 -0.016667  0.023241      4.000000
  0.149931 -0.016667  0.023241      4.000000
  0.021419  0.016667  0.046389      4.000000
  0.064256  0.016667  0.046389      4.000000
  0.107094  0.016667  0.046389      4.000000
  0.149931  0.016667  0.046389      4.000000
  0.021419  0.050000  0.034722      4.000000
  0.064256  0.050000  0.034722      4.000000
  0.107094  0.050000  0.034722      4.000000
  0.149931  0.050000  0.034722      4.000000
  0.021419  0.083333  0.023055      4.000000
  0.064256  0.083333  0.023055      4.000000
  0.107094  0.083333  0.023055      4.000000
  0.149931  0.083333  0.023055      4.000000
  0.021419 -0.083333  0.081391      4.000000
  0.064256 -0.083333  0.081391      4.000000
  0.107094 -0.083333  0.081391      4.000000
  0.149931 -0.083333  0.081391      4.000000
  0.021419 -0.050000  0.069723      4.000000
  0.064256 -0.050000  0.069723      4.000000
  0.107094 -0.050000  0.069723      4.000000
  0.149931 -0.050000  0.069723      4.000000
  0.021419 -0.016667  0.058056      4.000000
  0.064256 -0.016667  0.058056      4.000000
  0.107094 -0.016667  0.058056      4.000000
  0.149931 -0.016667  0.058056      4.000000
  0.021419  0.016667  0.081204      4.000000
  0.064256  0.016667  0.081204      4.000000
  0.107094  0.016667  0.081204      4.000000
  0.149931  0.016667  0.081204      4.000000
  0.021419  0.050000  0.069537      4.000000
  0.064256  0.050000  0.069537      4.000000
  0.107094  0.050000  0.069537      4.000000
  0.149931  0.050000  0.069537      4.000000
  0.021419  0.083333  0.057870      4.000000
  0.064256  0.083333  0.057870      4.000000
  0.107094  0.083333  0.057870      4.000000
  0.149931  0.083333  0.057870      4.000000
  0.021419 -0.083333  0.116206      4.000000
  0.064256 -0.083333  0.116206      4.000000
  0.107094 -0.083333  0.116206      4.000000
  0.149931 -0.083333  0.116206      4.000000
  0.021419 -0.050000  0.104538      4.000000
  0.064256 -0.050000  0.104538      4.000000
  0.107094 -0.050000  0.104538      4.000000
  0.149931 -0.050000  0.104538      4.000000
  0.021419 -0.016667  0.092871      4.000000
  0.064256 -0.016667  0.092871      4.000000
  0.107094 -0.016667  0.092871      4.000000
  0.149931 -0.016667  0.092871      4.000000
 
 TETIRR: Found    820 inequivalent tetrahedra from     1728


--------------------------------------------------------------------------------------------------------




 Dimension of arrays:
   k-points           NKPTS =     72   k-points in BZ     NKDIM =     72   number of bands    NBANDS=     48
   number of dos      NEDOS =    301   number of ions     NIONS =      8
   non local maximal  LDIM  =      6   non local SUM 2l+1 LMDIM =     18
   total plane-waves  NPLWV =  38400
   max r-space proj   IRMAX =   8360   max aug-charges    IRDMAX=  21880
   dimension x,y,z NGX =    24 NGY =   40 NGZ =   40
   dimension x,y,z NGXF=    48 NGYF=   80 NGZF=   80
   support grid    NGXF=    48 NGYF=   80 NGZF=   80
   ions per type =               2   1   1   4
 NGX,Y,Z   is equivalent  to a cutoff of  13.67, 13.30, 13.11 a.u.
 NGXF,Y,Z  is equivalent  to a cutoff of  27.35, 26.60, 26.22 a.u.


 I would recommend the setting:
   dimension x,y,z NGX =    22 NGY =   37 NGZ =   38
 SYSTEM =  unknown system                          
 POSCAR =  Li2 Co1 Ni1 O4                          

 Startparameter for this run:
   NWRITE =      2    write-flag & timer
   PREC   = accura    normal or accurate (medium, high low for compatibility)
   ISTART =      0    job   : 0-new  1-cont  2-samecut
   ICHARG =      1    charge: 1-file 2-atom 10-const
   ISPIN  =      2    spin polarized calculation?
   LNONCOLLINEAR =      F non collinear calculations
   LSORBIT =      F    spin-orbit coupling
   INIWAV =      1    electr: 0-lowe 1-rand  2-diag
   LASPH  =      F    aspherical Exc in radial PAW
   METAGGA=      F    non-selfconsistent MetaGGA calc.

 Electronic Relaxation 1
   ENCUT  =  520.0 eV  38.22 Ry    6.18 a.u.   5.43  9.30  9.43*2*pi/ulx,y,z
   ENINI  =  520.0     initial cutoff
   ENAUG  =  605.4 eV  augmentation charge cutoff
   NELM   =    100;   NELMIN=  6; NELMDL= -5     # of ELM steps 
   EDIFF  = 0.4E-03   stopping-criterion for ELM
   LREAL  =      T    real-space projection
   NLSPLINE    = F    spline interpolate recip. space projectors
   LCOMPAT=      F    compatible to vasp.4.4
   GGA_COMPAT  = T    GGA compatible to vasp.4.4-vasp.4.6
   LMAXPAW     = -100 max onsite density
   LMAXMIX     =    4 max onsite mixed and CHGCAR
   VOSKOWN=      0    Vosko Wilk Nusair interpolation
   ROPT   =   -0.00025  -0.00025  -0.00025  -0.00025
 Ionic relaxation
   EDIFFG = 0.4E-02   stopping-criterion for IOM
   NSW    =     99    number of steps for IOM
   NBLOCK =      1;   KBLOCK =     99    inner block; outer block 
   IBRION =      2    ionic relax: 0-MD 1-quasi-New 2-CG
   NFREE  =      1    steps in history (QN), initial steepest desc. (CG)
   ISIF   =      3    stress and relaxation
   IWAVPR =     11    prediction:  0-non 1-charg 2-wave 3-comb
   ISYM   =      2    0-nonsym 1-usesym 2-fastsym
   LCORR  =      T    Harris-Foulkes like correction to forces

   POTIM  = 0.5000    time-step for ionic-motion
   TEIN   =    0.0    initial temperature
   TEBEG  =    0.0;   TEEND  =   0.0 temperature during run
   SMASS  =  -3.00    Nose mass-parameter (am)
   estimated Nose-frequenzy (Omega)   =  0.10E-29 period in steps =****** mass=  -0.195E-27a.u.
   SCALEE = 1.0000    scale energy and forces
   NPACO  =    256;   APACO  = 16.0  distance and # of slots for P.C.
   PSTRESS=    0.0 pullay stress

  Mass of Ions in am
   POMASS =   7.01 58.93 58.69 16.00
  Ionic Valenz
   ZVAL   =   1.00  9.00 10.00  6.00
  Atomic Wigner-Seitz radii
   RWIGS  =  -1.00 -1.00 -1.00 -1.00
  virtual crystal weights 
   VCA    =   1.00  1.00  1.00  1.00
   NELECT =      45.0000    total number of electrons
   NUPDOWN=      -1.0000    fix difference up-down

 DOS related values:
   EMIN   =  10.00;   EMAX   =-10.00  energy-range for DOS
   EFERMI =   0.00
   ISMEAR =    -5;   SIGMA  =   0.05  broadening in eV -4-tet -1-fermi 0-gaus

 Electronic relaxation 2 (details)
   IALGO  =     68    algorithm
   LDIAG  =      T    sub-space diagonalisation (order eigenvalues)
   LSUBROT=      F    optimize rotation matrix (better conditioning)
   TURBO    =      0    0=normal 1=particle mesh
   IRESTART =      0    0=no restart 2=restart with 2 vectors
   NREBOOT  =      0    no. of reboots
   NMIN     =      0    reboot dimension
   EREF     =   0.00    reference energy to select bands
   IMIX   =      4    mixing-type and parameters
     AMIX     =   0.40;   BMIX     =  1.00
     AMIX_MAG =   1.60;   BMIX_MAG =  1.00
     AMIN     =   0.10
     WC   =   100.;   INIMIX=   1;  MIXPRE=   1;  MAXMIX= -45

 Intra band minimization:
   WEIMIN = 0.0010     energy-eigenvalue tresh-hold
   EBREAK =  0.21E-05  absolut break condition
   DEPER  =   0.30     relativ break condition  

   TIME   =   0.40     timestep for ELM

  volume/ion in A,a.u.               =       8.73        58.92
  Fermi-wavevector in a.u.,A,eV,Ry     =   1.413948  2.671974 27.201426  1.999248
  Thomas-Fermi vector in A             =   2.535541
 
 Write flags
   LWAVE  =      F    write WAVECAR
   LCHARG =      T    write CHGCAR
   LVTOT  =      F    write LOCPOT, total local potential
   LVHAR  =      F    write LOCPOT, Hartree potential only
   LELF   =      F    write electronic localiz. function (ELF)
   LORBIT =     11    0 simple, 1 ext, 2 COOP (PROOUT)


 Dipole corrections
   LMONO  =      F    monopole corrections only (constant potential shift)
   LDIPOL =      F    correct potential (dipole corrections)
   IDIPOL =      0    1-x, 2-y, 3-z, 4-all directions 
   EPSILON=  1.0000000 bulk dielectric constant

 LDA+U is selected, type is set to LDAUTYPE =  2
   angular momentum for each species LDAUL =     0    2    2    0
   U (eV)           for each species LDAUU =   0.0  3.4  6.0  0.0
   J (eV)           for each species LDAUJ =   0.0  0.0  0.0  0.0
 Exchange correlation treatment:
   GGA     =    --    GGA type
   LEXCH   =     8    internal setting for exchange type
   VOSKOWN=      0    Vosko Wilk Nusair interpolation
   LHFCALC =     F    Hartree Fock is set to
   LHFONE  =     F    Hartree Fock one center treatment
   AEXX    =    0.0000 exact exchange contribution

 Linear response parameters
   LEPSILON=     F    determine dielectric tensor
   LRPA    =     F    only Hartree local field effects (RPA)
   LNABLA  =     F    use nabla operator in PAW spheres
   LVEL    =     F    velocity operator in full k-point grid
   LINTERFAST=   F  fast interpolation
   KINTER  =     0    interpolate to denser k-point grid
   CSHIFT  =0.1000    complex shift for real part using Kramers Kronig
   OMEGAMAX=  -1.0    maximum frequency
   DEG_THRESHOLD= 0.2000000E-02 threshold for treating states as degnerate
   RTIME   =    0.100 relaxation time in fs

 Orbital magnetization related:
   ORBITALMAG=     F  switch on orbital magnetization
   LCHIMAG   =     F  perturbation theory with respect to B field
   DQ        =  0.001000  dq finite difference perturbation B field



--------------------------------------------------------------------------------------------------------


 conjugate gradient relaxation of ions
 charge density and potential will be updated during run
 spin polarized calculation
 RMM-DIIS sequential band-by-band and
  variant of blocked Davidson during initial phase
 perform sub-space diagonalisation
    before iterative eigenvector-optimisation
 modified Broyden-mixing scheme, WC =      100.0
 initial mixing is a Kerker type mixing with AMIX =  0.4000 and BMIX =      1.0000
 Hartree-type preconditioning will be used
 using additional bands           25
 real space projection scheme for non local part
 use partial core corrections
 calculate Harris-corrections to forces 
   (improved forces if not selfconsistent)
 use gradient corrections 
 use of overlap-Matrix (Vanderbilt PP)
 Fermi weights with tetrahedron method with Bloechl corrections


--------------------------------------------------------------------------------------------------------


  energy-cutoff  :      520.00
  volume of cell :       69.85
      direct lattice vectors                 reciprocal lattice vectors
     2.918000000  0.000000000  0.000000000     0.342700480  0.000000000  0.000000000
     0.000000000  5.000000000  0.000000000     0.000000000  0.200000000 -0.070003342
     0.000000000  1.675600000  4.787200000     0.000000000  0.000000000  0.208890374

  length of vectors
     2.918000000  5.000000000  5.071973896     0.342700480  0.211897305  0.208890374


 
 k-points in units of 2pi/SCALE and weight: pymatgen generated KPOINTS with grid den
   0.02141878  0.01666667  0.01157392       0.014
   0.06425634  0.01666667  0.01157392       0.014
   0.10709390  0.01666667  0.01157392       0.014
   0.14993146  0.01666667  0.01157392       0.014
   0.02141878  0.05000000 -0.00009330       0.014
   0.06425634  0.05000000 -0.00009330       0.014
   0.10709390  0.05000000 -0.00009330       0.014
   0.14993146  0.05000000 -0.00009330       0.014
   0.02141878  0.08333333 -0.01176053       0.014
   0.06425634  0.08333333 -0.01176053       0.014
   0.10709390  0.08333333 -0.01176053       0.014
   0.14993146  0.08333333 -0.01176053       0.014
   0.02141878 -0.08333333  0.04657559       0.014
   0.06425634 -0.08333333  0.04657559       0.014
   0.10709390 -0.08333333  0.04657559       0.014
   0.14993146 -0.08333333  0.04657559       0.014
   0.02141878 -0.05000000  0.03490837       0.014
   0.06425634 -0.05000000  0.03490837       0.014
   0.10709390 -0.05000000  0.03490837       0.014
   0.14993146 -0.05000000  0.03490837       0.014
   0.02141878 -0.01666667  0.02324114       0.014
   0.06425634 -0.01666667  0.02324114       0.014
   0.10709390 -0.01666667  0.02324114       0.014
   0.14993146 -0.01666667  0.02324114       0.014
   0.02141878  0.01666667  0.04638898       0.014
   0.06425634  0.01666667  0.04638898       0.014
   0.10709390  0.01666667  0.04638898       0.014
   0.14993146  0.01666667  0.04638898       0.014
   0.02141878  0.05000000  0.03472176       0.014
   0.06425634  0.05000000  0.03472176       0.014
   0.10709390  0.05000000  0.03472176       0.014
   0.14993146  0.05000000  0.03472176       0.014
   0.02141878  0.08333333  0.02305453       0.014
   0.06425634  0.08333333  0.02305453       0.014
   0.10709390  0.08333333  0.02305453       0.014
   0.14993146  0.08333333  0.02305453       0.014
   0.02141878 -0.08333333  0.08139065       0.014
   0.06425634 -0.08333333  0.08139065       0.014
   0.10709390 -0.08333333  0.08139065       0.014
   0.14993146 -0.08333333  0.08139065       0.014
   0.02141878 -0.05000000  0.06972343       0.014
   0.06425634 -0.05000000  0.06972343       0.014
   0.10709390 -0.05000000  0.06972343       0.014
   0.14993146 -0.05000000  0.06972343       0.014
   0.02141878 -0.01666667  0.05805621       0.014
   0.06425634 -0.01666667  0.05805621       0.014
   0.10709390 -0.01666667  0.05805621       0.014
   0.14993146 -0.01666667  0.05805621       0.014
   0.02141878  0.01666667  0.08120404       0.014
   0.06425634  0.01666667  0.08120404       0.014
   0.10709390  0.01666667  0.08120404       0.014
   0.14993146  0.01666667  0.08120404       0.014
   0.02141878  0.05000000  0.06953682       0.014
   0.06425634  0.05000000  0.06953682       0.014
   0.10709390  0.05000000  0.06953682       0.014
   0.14993146  0.05000000  0.06953682       0.014
   0.02141878  0.08333333  0.05786960       0.014
   0.06425634  0.08333333  0.05786960       0.014
   0.10709390  0.08333333  0.05786960       0.014
   0.14993146  0.08333333  0.05786960       0.014
   0.02141878 -0.08333333  0.11620572       0.014
   0.06425634 -0.08333333  0.11620572       0.014
   0.10709390 -0.08333333  0.11620572       0.014
   0.14993146 -0.08333333  0.11620572       0.014
   0.02141878 -0.05000000  0.10453849       0.014
   0.06425634 -0.05000000  0.10453849       0.014
   0.10709390 -0.05000000  0.10453849       0.014
   0.14993146 -0.05000000  0.10453849       0.014
   0.02141878 -0.01666667  0.09287127       0.014
   0.06425634 -0.01666667  0.09287127       0.014
   0.10709390 -0.01666667  0.09287127       0.014
   0.14993146 -0.01666667  0.09287127       0.014
 
 k-points in reciprocal lattice and weights: pymatgen generated KPOINTS with grid den
   0.06250000  0.08333333  0.08333333       0.014
   0.18750000  0.08333333  0.08333333       0.014
   0.31250000  0.08333333  0.08333333       0.014
   0.43750000  0.08333333  0.08333333       0.014
   0.06250000  0.25000000  0.08333333       0.014
   0.18750000  0.25000000  0.08333333       0.014
   0.31250000  0.25000000  0.08333333       0.014
   0.43750000  0.25000000  0.08333333       0.014
   0.06250000  0.41666667  0.08333333       0.014
   0.18750000  0.41666667  0.08333333       0.014
   0.31250000  0.41666667  0.08333333       0.014
   0.43750000  0.41666667  0.08333333       0.014
   0.06250000 -0.41666667  0.08333333       0.014
   0.18750000 -0.41666667  0.08333333       0.014
   0.31250000 -0.41666667  0.08333333       0.014
   0.43750000 -0.41666667  0.08333333       0.014
   0.06250000 -0.25000000  0.08333333       0.014
   0.18750000 -0.25000000  0.08333333       0.014
   0.31250000 -0.25000000  0.08333333       0.014
   0.43750000 -0.25000000  0.08333333       0.014
   0.06250000 -0.08333333  0.08333333       0.014
   0.18750000 -0.08333333  0.08333333       0.014
   0.31250000 -0.08333333  0.08333333       0.014
   0.43750000 -0.08333333  0.08333333       0.014
   0.06250000  0.08333333  0.25000000       0.014
   0.18750000  0.08333333  0.25000000       0.014
   0.31250000  0.08333333  0.25000000       0.014
   0.43750000  0.08333333  0.25000000       0.014
   0.06250000  0.25000000  0.25000000       0.014
   0.18750000  0.25000000  0.25000000       0.014
   0.31250000  0.25000000  0.25000000       0.014
   0.43750000  0.25000000  0.25000000       0.014
   0.06250000  0.41666667  0.25000000       0.014
   0.18750000  0.41666667  0.25000000       0.014
   0.31250000  0.41666667  0.25000000       0.014
   0.43750000  0.41666667  0.25000000       0.014
   0.06250000 -0.41666667  0.25000000       0.014
   0.18750000 -0.41666667  0.25000000       0.014
   0.31250000 -0.41666667  0.25000000       0.014
   0.43750000 -0.41666667  0.25000000       0.014
   0.06250000 -0.25000000  0.25000000       0.014
   0.18750000 -0.25000000  0.25000000       0.014
   0.31250000 -0.25000000  0.25000000       0.014
   0.43750000 -0.25000000  0.25000000       0.014
   0.06250000 -0.08333333  0.25000000       0.014
   0.18750000 -0.08333333  0.25000000       0.014
   0.31250000 -0.08333333  0.25000000       0.014
   0.43750000 -0.08333333  0.25000000       0.014
   0.06250000  0.08333333  0.41666667       0.014
   0.18750000  0.08333333  0.41666667       0.014
   0.31250000  0.08333333  0.41666667       0.014
   0.43750000  0.08333333  0.41666667       0.014
   0.06250000  0.25000000  0.41666667       0.014
   0.18750000  0.25000000  0.41666667       0.014
   0.31250000  0.25000000  0.41666667       0.014
   0.43750000  0.25000000  0.41666667       0.014
   0.06250000  0.41666667  0.41666667       0.014
   0.18750000  0.41666667  0.41666667       0.014
   0.31250000  0.41666667  0.41666667       0.014
   0.43750000  0.41666667  0.41666667       0.014
   0.06250000 -0.41666667  0.41666667       0.014
   0.18750000 -0.41666667  0.41666667       0.014
   0.31250000 -0.41666667  0.41666667       0.014
   0.43750000 -0.41666667  0.41666667       0.014
   0.06250000 -0.25000000  0.41666667       0.014
   0.18750000 -0.25000000  0.41666667       0.014
   0.31250000 -0.25000000  0.41666667       0.014
   0.43750000 -0.25000000  0.41666667       0.014
   0.06250000 -0.08333333  0.41666667       0.014
   0.18750000 -0.08333333  0.41666667       0.014
   0.31250000 -0.08333333  0.41666667       0.014
   0.43750000 -0.08333333  0.41666667       0.014
 
 position of ions in fractional coordinates (direct lattice) 
   0.50000000  0.50000000  0.00000000
   0.00000000  0.50000000  0.50000000
   0.00000000  0.00000000  0.00000000
   0.50000000  0.00000000  0.50000000
   0.00000000  0.75000000  0.75000000
   0.50000000  0.75000000  0.25000000
   0.00000000  0.25000000  0.25000000
   0.50000000  0.25000000  0.75000000
 
 position of ions in cartesian coordinates  (Angst):
   1.45900000  2.50000000  0.00000000
   0.00000000  3.33780000  2.39360000
   0.00000000  0.00000000  0.00000000
   1.45900000  0.83780000  2.39360000
   0.00000000  5.00670000  3.59040000
   1.45900000  4.16890000  1.19680000
   0.00000000  1.66890000  1.19680000
   1.45900000  2.50670000  3.59040000
 


--------------------------------------------------------------------------------------------------------


 k-point  1 :   0.0625 0.0833 0.0833  plane waves:    1884
 k-point  2 :   0.1875 0.0833 0.0833  plane waves:    1879
 k-point  3 :   0.3125 0.0833 0.0833  plane waves:    1874
 k-point  4 :   0.4375 0.0833 0.0833  plane waves:    1877
 k-point  5 :   0.0625 0.2500 0.0833  plane waves:    1886
 k-point  6 :   0.1875 0.2500 0.0833  plane waves:    1884
 k-point  7 :   0.3125 0.2500 0.0833  plane waves:    1879
 k-point  8 :   0.4375 0.2500 0.0833  plane waves:    1874
 k-point  9 :   0.0625 0.4167 0.0833  plane waves:    1887
 k-point 10 :   0.1875 0.4167 0.0833  plane waves:    1883
 k-point 11 :   0.3125 0.4167 0.0833  plane waves:    1876
 k-point 12 :   0.4375 0.4167 0.0833  plane waves:    1876
 k-point 13 :   0.0625-0.4167 0.0833  plane waves:    1888
 k-point 14 :   0.1875-0.4167 0.0833  plane waves:    1896
 k-point 15 :   0.3125-0.4167 0.0833  plane waves:    1879
 k-point 16 :   0.4375-0.4167 0.0833  plane waves:    1873
 k-point 17 :   0.0625-0.2500 0.0833  plane waves:    1890
 k-point 18 :   0.1875-0.2500 0.0833  plane waves:    1888
 k-point 19 :   0.3125-0.2500 0.0833  plane waves:    1881
 k-point 20 :   0.4375-0.2500 0.0833  plane waves:    1881
 k-point 21 :   0.0625-0.0833 0.0833  plane waves:    1887
 k-point 22 :   0.1875-0.0833 0.0833  plane waves:    1881
 k-point 23 :   0.3125-0.0833 0.0833  plane waves:    1884
 k-point 24 :   0.4375-0.0833 0.0833  plane waves:    1881
 k-point 25 :   0.0625 0.0833 0.2500  plane waves:    1887
 k-point 26 :   0.1875 0.0833 0.2500  plane waves:    1887
 k-point 27 :   0.3125 0.0833 0.2500  plane waves:    1874
 k-point 28 :   0.4375 0.0833 0.2500  plane waves:    1878
 k-point 29 :   0.0625 0.2500 0.2500  plane waves:    1882
 k-point 30 :   0.1875 0.2500 0.2500  plane waves:    1881
 k-point 31 :   0.3125 0.2500 0.2500  plane waves:    1878
 k-point 32 :   0.4375 0.2500 0.2500  plane waves:    1875
 k-point 33 :   0.0625 0.4167 0.2500  plane waves:    1885
 k-point 34 :   0.1875 0.4167 0.2500  plane waves:    1876
 k-point 35 :   0.3125 0.4167 0.2500  plane waves:    1881
 k-point 36 :   0.4375 0.4167 0.2500  plane waves:    1873
 k-point 37 :   0.0625-0.4167 0.2500  plane waves:    1888
 k-point 38 :   0.1875-0.4167 0.2500  plane waves:    1892
 k-point 39 :   0.3125-0.4167 0.2500  plane waves:    1878
 k-point 40 :   0.4375-0.4167 0.2500  plane waves:    1868
 k-point 41 :   0.0625-0.2500 0.2500  plane waves:    1888
 k-point 42 :   0.1875-0.2500 0.2500  plane waves:    1889
 k-point 43 :   0.3125-0.2500 0.2500  plane waves:    1882
 k-point 44 :   0.4375-0.2500 0.2500  plane waves:    1872
 k-point 45 :   0.0625-0.0833 0.2500  plane waves:    1895
 k-point 46 :   0.1875-0.0833 0.2500  plane waves:    1885
 k-point 47 :   0.3125-0.0833 0.2500  plane waves:    1881
 k-point 48 :   0.4375-0.0833 0.2500  plane waves:    1876
 k-point 49 :   0.0625 0.0833 0.4167  plane waves:    1892
 k-point 50 :   0.1875 0.0833 0.4167  plane waves:    1890
 k-point 51 :   0.3125 0.0833 0.4167  plane waves:    1877
 k-point 52 :   0.4375 0.0833 0.4167  plane waves:    1867
 k-point 53 :   0.0625 0.2500 0.4167  plane waves:    1884
 k-point 54 :   0.1875 0.2500 0.4167  plane waves:    1880
 k-point 55 :   0.3125 0.2500 0.4167  plane waves:    1878
 k-point 56 :   0.4375 0.2500 0.4167  plane waves:    1858
 k-point 57 :   0.0625 0.4167 0.4167  plane waves:    1887
 k-point 58 :   0.1875 0.4167 0.4167  plane waves:    1881
 k-point 59 :   0.3125 0.4167 0.4167  plane waves:    1876
 k-point 60 :   0.4375 0.4167 0.4167  plane waves:    1865
 k-point 61 :   0.0625-0.4167 0.4167  plane waves:    1888
 k-point 62 :   0.1875-0.4167 0.4167  plane waves:    1884
 k-point 63 :   0.3125-0.4167 0.4167  plane waves:    1876
 k-point 64 :   0.4375-0.4167 0.4167  plane waves:    1861
 k-point 65 :   0.0625-0.2500 0.4167  plane waves:    1883
 k-point 66 :   0.1875-0.2500 0.4167  plane waves:    1889
 k-point 67 :   0.3125-0.2500 0.4167  plane waves:    1873
 k-point 68 :   0.4375-0.2500 0.4167  plane waves:    1867
 k-point 69 :   0.0625-0.0833 0.4167  plane waves:    1891
 k-point 70 :   0.1875-0.0833 0.4167  plane waves:    1891
 k-point 71 :   0.3125-0.0833 0.4167  plane waves:    1873
 k-point 72 :   0.4375-0.0833 0.4167  plane waves:    1862

 maximum and minimum number of plane-waves per node :      1896     1858

 maximum number of plane-waves:      1896
 maximum index in each direction: 
   IXMAX=    5   IYMAX=    9   IZMAX=    9
   IXMIN=   -5   IYMIN=   -9   IZMIN=   -9

 NGX is ok and might be reduce to  22
 NGY is ok and might be reduce to  38
 NGZ is ok and might be reduce to  38

 serial   3D FFT for wavefunctions
 parallel 3D FFT for charge:
    minimum data exchange during FFTs selected (reduces bandwidth)


 total amount of memory used by VASP on root node    43688. kBytes
========================================================================

   base      :      30000. kBytes
   nonlr-proj:       4664. kBytes
   fftplans  :        397. kBytes
   grid      :       3735. kBytes
   one-center:        248. kBytes
   wavefun   :       4644. kBytes
 
     INWAV:  cpu time    0.0010: real time    0.0001
 Broyden mixing: mesh for mixing (old mesh)
   NGX = 11   NGY = 19   NGZ = 19
  (NGX  = 48   NGY  = 80   NGZ  = 80)
  gives a total of   3971 points

 initial charge density was supplied:
 charge density of overlapping atoms calculated
 number of electron      45.0000000 magnetization       5.7000000
 keeping initial charge density in first step


--------------------------------------------------------------------------------------------------------


 Maximum index for non-local projection operator         8063
 Maximum index for augmentation-charges          921 (set IRDMAX)


--------------------------------------------------------------------------------------------------------


 First call to EWALD:  gamma=   0.430
 Maximum number of real-space cells 4x 2x 2
 Maximum number of reciprocal cells 2x 3x 3

 FEWALD executed in parallel
    FEWALD:  cpu time    0.0010: real time    0.0016


----------------------------------------- Iteration    1(   1)  ---------------------------------------


    POTLOK:  cpu time    0.0210: real time    0.0208
    SETDIJ:  cpu time    0.0060: real time    0.0058
     EDDAV:  cpu time    4.6913: real time    4.6909
 BZINTS: Fermi energy:  9.035399; 45.000000 electrons
         Band energy:  17.415755;  BLOECHL correction: -0.072142
       DOS:  cpu time    0.1450: real time    0.1462
    --------------------------------------------
      LOOP:  cpu time    4.8653: real time    4.8667

 eigenvalue-minimisations  : 13824
 total energy-change (2. order) : 0.8266366E+02  (-0.2670812E+04)
 number of electron      45.0000000 magnetization       5.7000000
 augmentation part       45.0000000 magnetization       5.7000000

 Free energy of the ion-electron system (eV)
  ---------------------------------------------------
  alpha Z        PSCENC =       192.12196154
  Ewald energy   TEWEN  =     -2745.54389990
  -Hartree energ DENC   =     -1079.85902906
  -exchange      EXHF   =         0.00000000
  -V(xc)+E(xc)   XCENC  =       151.49919160
  PAW double counting   =      2499.44482102    -2583.90028733
  entropy T*S    EENTRO =         0.00000000
  eigenvalues    EBANDS =        17.41575523
  atomic energy  EATOM  =      3631.48514882
  Solvation  Ediel_sol  =         0.00000000
  ---------------------------------------------------
  free energy    TOTEN  =        82.66366192 eV

  energy without entropy =       82.66366192  energy(sigma->0) =       82.66366192


--------------------------------------------------------------------------------------------------------




----------------------------------------- Iteration    1(   2)  ---------------------------------------


     EDDAV:  cpu time    6.4600: real time    6.4588
 BZINTS: Fermi energy:  6.391124; 45.000000 electrons
         Band energy:-116.012837;  BLOECHL correction: -0.009585
       DOS:  cpu time    0.1480: real time    0.1484
    --------------------------------------------
      LOOP:  cpu time    6.6100: real time    6.6090

 eigenvalue-minimisations  : 17184
 total energy-change (2. order) :-0.1334286E+03  (-0.1332418E+03)
 number of electron      45.0000000 magnetization       5.7000000
 augmentation part       45.0000000 magnetization       5.7000000

 Free energy of the ion-electron system (eV)
  ---------------------------------------------------
  alpha Z        PSCENC =       192.12196154
  Ewald energy   TEWEN  =     -2745.54389990
  -Hartree energ DENC   =     -1079.85902906
  -exchange      EXHF   =         0.00000000
  -V(xc)+E(xc)   XCENC  =       151.49919160
  PAW double counting   =      2499.44482102    -2583.90028733
  entropy T*S    EENTRO =         0.00000000
  eigenvalues    EBANDS =      -116.01283699
  atomic energy  EATOM  =      3631.48514882
  Solvation  Ediel_sol  =         0.00000000
  ---------------------------------------------------
  free energy    TOTEN  =       -50.76493030 eV

  energy without entropy =      -50.76493030  energy(sigma->0) =      -50.76493030


--------------------------------------------------------------------------------------------------------




----------------------------------------- Iteration    1(   3)  ---------------------------------------


     EDDAV:  cpu time    7.1299: real time    7.1282
 BZINTS: Fermi energy:  6.370649; 45.000000 electrons
         Band energy:-117.585340;  BLOECHL correction: -0.010467
       DOS:  cpu time    0.1490: real time    0.1481
    --------------------------------------------
      LOOP:  cpu time    7.2809: real time    7.2784

 eigenvalue-minimisations  : 17952
 total energy-change (2. order) :-0.1572503E+01  (-0.1571064E+01)
 number of electron      45.0000000 magnetization       5.7000000
 augmentation part       45.0000000 magnetization       5.7000000

 Free energy of the ion-electron system (eV)
  ---------------------------------------------------
  alpha Z        PSCENC =       192.12196154
  Ewald energy   TEWEN  =     -2745.54389990
  -Hartree energ DENC   =     -1079.85902906
  -exchange      EXHF   =         0.00000000
  -V(xc)+E(xc)   XCENC  =       151.49919160
  PAW double counting   =      2499.44482102    -2583.90028733
  entropy T*S    EENTRO =         0.00000000
  eigenvalues    EBANDS =      -117.58533958
  atomic energy  EATOM  =      3631.48514882
  Solvation  Ediel_sol  =         0.00000000
  ---------------------------------------------------
  free energy    TOTEN  =       -52.33743289 eV

  energy without entropy =      -52.33743289  energy(sigma->0) =      -52.33743289


--------------------------------------------------------------------------------------------------------




----------------------------------------- Iteration    1(   4)  ---------------------------------------


     EDDAV:  cpu time    9.8205: real time    9.8178
 BZINTS: Fermi energy:  6.370617; 45.000000 electrons
         Band energy:-117.587449;  BLOECHL correction: -0.010468
       DOS:  cpu time    0.1400: real time    0.1399
    --------------------------------------------
      LOOP:  cpu time    9.9605: real time    9.9599

 eigenvalue-minimisations  : 22128
 total energy-change (2. order) :-0.2109759E-02  (-0.2108429E-02)
 number of electron      45.0000000 magnetization       5.7000000
 augmentation part       45.0000000 magnetization       5.7000000

 Free energy of the ion-electron system (eV)
  ---------------------------------------------------
  alpha Z        PSCENC =       192.12196154
  Ewald energy   TEWEN  =     -2745.54389990
  -Hartree energ DENC   =     -1079.85902906
  -exchange      EXHF   =         0.00000000
  -V(xc)+E(xc)   XCENC  =       151.49919160
  PAW double counting   =      2499.44482102    -2583.90028733
  entropy T*S    EENTRO =         0.00000000
  eigenvalues    EBANDS =      -117.58744934
  atomic energy  EATOM  =      3631.48514882
  Solvation  Ediel_sol  =         0.00000000
  ---------------------------------------------------
  free energy    TOTEN  =       -52.33954265 eV

  energy without entropy =      -52.33954265  energy(sigma->0) =      -52.33954265


--------------------------------------------------------------------------------------------------------




----------------------------------------- Iteration    1(   5)  ---------------------------------------


     EDDAV:  cpu time    7.7378: real time    7.7357
 BZINTS: Fermi energy:  6.370617; 45.000000 electrons
         Band energy:-117.587450;  BLOECHL correction: -0.010468
       DOS:  cpu time    0.1440: real time    0.1435
    CHARGE:  cpu time    0.0960: real time    0.0958
    MIXING:  cpu time    0.0010: real time    0.0007
    --------------------------------------------
      LOOP:  cpu time    7.9798: real time    7.9786

 eigenvalue-minimisations  : 18720
 total energy-change (2. order) :-0.2460001E-06  (-0.2463246E-06)
 number of electron      45.0000011 magnetization       2.9666907
 augmentation part       12.5058202 magnetization       2.2298797

 Broyden mixing:
  rms(total) = 0.26861E+01    rms(broyden)= 0.26857E+01
  rms(prec ) = 0.57995E+01
  weight for this iteration     100.00

 Free energy of the ion-electron system (eV)
  ---------------------------------------------------
  alpha Z        PSCENC =       192.12196154
  Ewald energy   TEWEN  =     -2745.54389990
  -Hartree energ DENC   =     -1079.85902906
  -exchange      EXHF   =         0.00000000
  -V(xc)+E(xc)   XCENC  =       151.49919160
  PAW double counting   =      2499.44482102    -2583.90028733
  entropy T*S    EENTRO =         0.00000000
  eigenvalues    EBANDS =      -117.58744958
  atomic energy  EATOM  =      3631.48514882
  Solvation  Ediel_sol  =         0.00000000
  ---------------------------------------------------
  free energy    TOTEN  =       -52.33954290 eV

  energy without entropy =      -52.33954290  energy(sigma->0) =      -52.33954290


--------------------------------------------------------------------------------------------------------




----------------------------------------- Iteration    1(   6)  ---------------------------------------


    POTLOK:  cpu time    0.0200: real time    0.0197
    SETDIJ:  cpu time    0.0050: real time    0.0057
    EDDIAG:  cpu time    0.9509: real time    0.9505
  RMM-DIIS:  cpu time    1.7327: real time    1.7316
    ORTHCH:  cpu time    0.1370: real time    0.1373
 BZINTS: Fermi energy:  2.522643; 45.000000 electrons
         Band energy:-181.473296;  BLOECHL correction: -0.092628
       DOS:  cpu time    0.1460: real time    0.1461
    CHARGE:  cpu time    0.0960: real time    0.0950
    MIXING:  cpu time    0.0000: real time    0.0005
    --------------------------------------------
      LOOP:  cpu time    3.0875: real time    3.0882

 eigenvalue-minimisations  : 14060
 total energy-change (2. order) :-0.8599481E+01  (-0.6932496E+01)
 number of electron      45.0000010 magnetization       2.1020088
 augmentation part       16.1717324 magnetization       2.1881326

 Broyden mixing:
  rms(total) = 0.35667E+01    rms(broyden)= 0.35663E+01
  rms(prec ) = 0.75911E+01
  weight for this iteration     100.00

 eigenvalues of (default mixing * dielectric matrix)
  average eigenvalue GAMMA=   0.4320
  0.4320

 Free energy of the ion-electron system (eV)
  ---------------------------------------------------
  alpha Z        PSCENC =       192.12196154
  Ewald energy   TEWEN  =     -2745.54389990
  -Hartree energ DENC   =     -1048.52734691
  -exchange      EXHF   =         0.00000000
  -V(xc)+E(xc)   XCENC  =       153.50958818
  PAW double counting   =      2516.98094293    -2579.49212239
  entropy T*S    EENTRO =         0.00000000
  eigenvalues    EBANDS =      -181.47329578
  atomic energy  EATOM  =      3631.48514882
  Solvation  Ediel_sol  =         0.00000000
  ---------------------------------------------------
  free energy    TOTEN  =       -60.93902353 eV

  energy without entropy =      -60.93902353  energy(sigma->0) =      -60.93902353


--------------------------------------------------------------------------------------------------------




----------------------------------------- Iteration    1(   7)  ---------------------------------------


    POTLOK:  cpu time    0.0190: real time    0.0197
    SETDIJ:  cpu time    0.0060: real time    0.0057
    EDDIAG:  cpu time    0.9479: real time    0.9478
  RMM-DIIS:  cpu time    1.5478: real time    1.5473
    ORTHCH:  cpu time    0.1370: real time    0.1372
 BZINTS: Fermi energy:  3.892513; 45.000000 electrons
         Band energy:-123.870660;  BLOECHL correction: -0.002613
       DOS:  cpu time    0.1370: real time    0.1369
    CHARGE:  cpu time    0.0960: real time    0.0950
    MIXING:  cpu time    0.0000: real time    0.0004
    --------------------------------------------
      LOOP:  cpu time    2.8916: real time    2.8919

 eigenvalue-minimisations  : 13827
 total energy-change (2. order) : 0.1712124E+02  (-0.1629758E+01)
 number of electron      45.0000011 magnetization       2.2849445
 augmentation part       13.1640658 magnetization       1.4341436

 Broyden mixing:
  rms(total) = 0.15046E+01    rms(broyden)= 0.15043E+01
  rms(prec ) = 0.33430E+01
  weight for this iteration     100.00

 eigenvalues of (default mixing * dielectric matrix)
  average eigenvalue GAMMA=   0.3885
  0.5110  0.2660

 Free energy of the ion-electron system (eV)
  ---------------------------------------------------
  alpha Z        PSCENC =       192.12196154
  Ewald energy   TEWEN  =     -2745.54389990
  -Hartree energ DENC   =     -1067.31864198
  -exchange      EXHF   =         0.00000000
  -V(xc)+E(xc)   XCENC  =       152.52035430
  PAW double counting   =      2584.77333452    -2667.98537686
  entropy T*S    EENTRO =         0.00000000
  eigenvalues    EBANDS =      -123.87065998
  atomic energy  EATOM  =      3631.48514882
  Solvation  Ediel_sol  =         0.00000000
  ---------------------------------------------------
  free energy    TOTEN  =       -43.81777954 eV

  energy without entropy =      -43.81777954  energy(sigma->0) =      -43.81777954


--------------------------------------------------------------------------------------------------------




----------------------------------------- Iteration    1(   8)  ---------------------------------------


    POTLOK:  cpu time    0.0200: real time    0.0193
    SETDIJ:  cpu time    0.0050: real time    0.0057
    EDDIAG:  cpu time    0.9489: real time    0.9480
  RMM-DIIS:  cpu time    1.5838: real time    1.5832
    ORTHCH:  cpu time    0.1390: real time    0.1391
 BZINTS: Fermi energy:  2.696392; 45.000000 electrons
         Band energy:-122.425110;  BLOECHL correction: -0.003543
       DOS:  cpu time    0.1360: real time    0.1366
    CHARGE:  cpu time    0.0960: real time    0.0954
    MIXING:  cpu time    0.0000: real time    0.0004
    --------------------------------------------
      LOOP:  cpu time    2.9286: real time    2.9294

 eigenvalue-minimisations  : 13827
 total energy-change (2. order) : 0.2329768E+01  (-0.8587120E-01)
 number of electron      45.0000010 magnetization       2.5655285
 augmentation part       13.4314839 magnetization       1.7767649

 Broyden mixing:
  rms(total) = 0.80277E+00    rms(broyden)= 0.80271E+00
  rms(prec ) = 0.17465E+01
  weight for this iteration     100.00

 eigenvalues of (default mixing * dielectric matrix)
  average eigenvalue GAMMA=   0.5437
  0.6414  0.6414  0.3481

 Free energy of the ion-electron system (eV)
  ---------------------------------------------------
  alpha Z        PSCENC =       192.12196154
  Ewald energy   TEWEN  =     -2745.54389990
  -Hartree energ DENC   =     -1065.20122832
  -exchange      EXHF   =         0.00000000
  -V(xc)+E(xc)   XCENC  =       152.39162737
  PAW double counting   =      2599.22522988    -2683.54174049
  entropy T*S    EENTRO =         0.00000000
  eigenvalues    EBANDS =      -122.42511033
  atomic energy  EATOM  =      3631.48514882
  Solvation  Ediel_sol  =         0.00000000
  ---------------------------------------------------
  free energy    TOTEN  =       -41.48801143 eV

  energy without entropy =      -41.48801143  energy(sigma->0) =      -41.48801143


--------------------------------------------------------------------------------------------------------




----------------------------------------- Iteration    1(   9)  ---------------------------------------


    POTLOK:  cpu time    0.0200: real time    0.0196
    SETDIJ:  cpu time    0.0050: real time    0.0057
    EDDIAG:  cpu time    0.9489: real time    0.9482
  RMM-DIIS:  cpu time    1.8017: real time    1.8015
    ORTHCH:  cpu time    0.1380: real time    0.1373
 BZINTS: Fermi energy:  2.544917; 45.000000 electrons
         Band energy:-125.179654;  BLOECHL correction: -0.014830
       DOS:  cpu time    0.1430: real time    0.1441
    CHARGE:  cpu time    0.0960: real time    0.0951
    MIXING:  cpu time    0.0000: real time    0.0004
    --------------------------------------------
      LOOP:  cpu time    3.1535: real time    3.1539

 eigenvalue-minimisations  : 14012
 total energy-change (2. order) : 0.2125552E+00  (-0.1640450E-01)
 number of electron      45.0000010 magnetization       2.3547718
 augmentation part       13.6639648 magnetization       1.9410538

 Broyden mixing:
  rms(total) = 0.35584E+00    rms(broyden)= 0.35573E+00
  rms(prec ) = 0.63758E+00
  weight for this iteration     100.00

 eigenvalues of (default mixing * dielectric matrix)
  average eigenvalue GAMMA=   0.5491
  0.9237  0.5082  0.3822  0.3822

 Free energy of the ion-electron system (eV)
  ---------------------------------------------------
  alpha Z        PSCENC =       192.12196154
  Ewald energy   TEWEN  =     -2745.54389990
  -Hartree energ DENC   =     -1062.65082256
  -exchange      EXHF   =         0.00000000
  -V(xc)+E(xc)   XCENC  =       152.48718047
  PAW double counting   =      2616.82495894    -2700.82032910
  entropy T*S    EENTRO =         0.00000000
  eigenvalues    EBANDS =      -125.17965443
  atomic energy  EATOM  =      3631.48514882
  Solvation  Ediel_sol  =         0.00000000
  ---------------------------------------------------
  free energy    TOTEN  =       -41.27545622 eV

  energy without entropy =      -41.27545622  energy(sigma->0) =      -41.27545622


--------------------------------------------------------------------------------------------------------




----------------------------------------- Iteration    1(  10)  ---------------------------------------


    POTLOK:  cpu time    0.0190: real time    0.0195
    SETDIJ:  cpu time    0.0060: real time    0.0058
    EDDIAG:  cpu time    0.9509: real time    0.9498
  RMM-DIIS:  cpu time    1.5798: real time    1.5801
    ORTHCH:  cpu time    0.1380: real time    0.1374
 BZINTS: Fermi energy:  2.483249; 45.000000 electrons
         Band energy:-128.179787;  BLOECHL correction: -0.014620
       DOS:  cpu time    0.1400: real time    0.1407
    CHARGE:  cpu time    0.0960: real time    0.0951
    MIXING:  cpu time    0.0000: real time    0.0005
    --------------------------------------------
      LOOP:  cpu time    2.9306: real time    2.9306

 eigenvalue-minimisations  : 13861
 total energy-change (2. order) :-0.2183323E+00  (-0.7244413E-02)
 number of electron      45.0000010 magnetization       1.6496368
 augmentation part       13.8853926 magnetization       1.6366305

 Broyden mixing:
  rms(total) = 0.39346E+00    rms(broyden)= 0.39340E+00
  rms(prec ) = 0.69053E+00
  weight for this iteration     100.00

 eigenvalues of (default mixing * dielectric matrix)
  average eigenvalue GAMMA=   0.6731
  1.3962  0.5675  0.3226  0.5396  0.5396

 Free energy of the ion-electron system (eV)
  ---------------------------------------------------
  alpha Z        PSCENC =       192.12196154
  Ewald energy   TEWEN  =     -2745.54389990
  -Hartree energ DENC   =     -1059.34532901
  -exchange      EXHF   =         0.00000000
  -V(xc)+E(xc)   XCENC  =       152.41970487
  PAW double counting   =      2638.46967291    -2722.92126119
  entropy T*S    EENTRO =         0.00000000
  eigenvalues    EBANDS =      -128.17978656
  atomic energy  EATOM  =      3631.48514882
  Solvation  Ediel_sol  =         0.00000000
  ---------------------------------------------------
  free energy    TOTEN  =       -41.49378853 eV

  energy without entropy =      -41.49378853  energy(sigma->0) =      -41.49378853


--------------------------------------------------------------------------------------------------------




----------------------------------------- Iteration    1(  11)  ---------------------------------------


    POTLOK:  cpu time    0.0190: real time    0.0196
    SETDIJ:  cpu time    0.0060: real time    0.0058
    EDDIAG:  cpu time    0.9849: real time    0.9845
  RMM-DIIS:  cpu time    1.6787: real time    1.6788
    ORTHCH:  cpu time    0.1370: real time    0.1371
 BZINTS: Fermi energy:  2.418841; 45.000000 electrons
         Band energy:-129.834722;  BLOECHL correction: -0.011272
       DOS:  cpu time    0.1370: real time    0.1369
    CHARGE:  cpu time    0.0960: real time    0.0955
    MIXING:  cpu time    0.0000: real time    0.0005
    --------------------------------------------
      LOOP:  cpu time    3.0595: real time    3.0605

 eigenvalue-minimisations  : 13967
 total energy-change (2. order) :-0.2539345E+00  (-0.9335240E-02)
 number of electron      45.0000010 magnetization       1.4629522
 augmentation part       13.9354645 magnetization       1.6874754

 Broyden mixing:
  rms(total) = 0.40541E+00    rms(broyden)= 0.40533E+00
  rms(prec ) = 0.77807E+00
  weight for this iteration     100.00

 eigenvalues of (default mixing * dielectric matrix)
  average eigenvalue GAMMA=   0.7103
  1.2032  0.8276  0.8276  0.3313  0.5359  0.5359

 Free energy of the ion-electron system (eV)
  ---------------------------------------------------
  alpha Z        PSCENC =       192.12196154
  Ewald energy   TEWEN  =     -2745.54389990
  -Hartree energ DENC   =     -1056.81747788
  -exchange      EXHF   =         0.00000000
  -V(xc)+E(xc)   XCENC  =       152.27967943
  PAW double counting   =      2663.11684112    -2748.55525406
  entropy T*S    EENTRO =         0.00000000
  eigenvalues    EBANDS =      -129.83472205
  atomic energy  EATOM  =      3631.48514882
  Solvation  Ediel_sol  =         0.00000000
  ---------------------------------------------------
  free energy    TOTEN  =       -41.74772298 eV

  energy without entropy =      -41.74772298  energy(sigma->0) =      -41.74772298


--------------------------------------------------------------------------------------------------------




----------------------------------------- Iteration    1(  12)  ---------------------------------------


    POTLOK:  cpu time    0.0200: real time    0.0196
    SETDIJ:  cpu time    0.0050: real time    0.0058
    EDDIAG:  cpu time    0.9519: real time    0.9509
  RMM-DIIS:  cpu time    1.6148: real time    1.6144
    ORTHCH:  cpu time    0.1380: real time    0.1374
 BZINTS: Fermi energy:  2.406578; 45.000000 electrons
         Band energy:-129.365807;  BLOECHL correction: -0.012222
       DOS:  cpu time    0.1320: real time    0.1332
    CHARGE:  cpu time    0.0960: real time    0.0952
    MIXING:  cpu time    0.0000: real time    0.0005
    --------------------------------------------
      LOOP:  cpu time    2.9586: real time    2.9591

 eigenvalue-minimisations  : 13916
 total energy-change (2. order) :-0.2953239E-01  (-0.1942676E-02)
 number of electron      45.0000010 magnetization       1.0244791
 augmentation part       13.8782185 magnetization       1.2202094

 Broyden mixing:
  rms(total) = 0.27005E+00    rms(broyden)= 0.27003E+00
  rms(prec ) = 0.49787E+00
  weight for this iteration     100.00

 eigenvalues of (default mixing * dielectric matrix)
  average eigenvalue GAMMA=   0.9018
  1.3739  1.3739  1.3127  0.6504  0.6504  0.6220  0.3293

 Free energy of the ion-electron system (eV)
  ---------------------------------------------------
  alpha Z        PSCENC =       192.12196154
  Ewald energy   TEWEN  =     -2745.54389990
  -Hartree energ DENC   =     -1057.13513651
  -exchange      EXHF   =         0.00000000
  -V(xc)+E(xc)   XCENC  =       152.27391131
  PAW double counting   =      2666.56722228    -2752.18065544
  entropy T*S    EENTRO =         0.00000000
  eigenvalues    EBANDS =      -129.36580747
  atomic energy  EATOM  =      3631.48514882
  Solvation  Ediel_sol  =         0.00000000
  ---------------------------------------------------
  free energy    TOTEN  =       -41.77725537 eV

  energy without entropy =      -41.77725537  energy(sigma->0) =      -41.77725537


--------------------------------------------------------------------------------------------------------




----------------------------------------- Iteration    1(  13)  ---------------------------------------


    POTLOK:  cpu time    0.0210: real time    0.0204
    SETDIJ:  cpu time    0.0050: real time    0.0059
    EDDIAG:  cpu time    0.9519: real time    0.9512
  RMM-DIIS:  cpu time    1.7117: real time    1.7111
    ORTHCH:  cpu time    0.1380: real time    0.1376
 BZINTS: Fermi energy:  2.433203; 45.000000 electrons
         Band energy:-129.698955;  BLOECHL correction: -0.013017
       DOS:  cpu time    0.1400: real time    0.1406
    CHARGE:  cpu time    0.0960: real time    0.0956
    MIXING:  cpu time    0.0000: real time    0.0005
    --------------------------------------------
      LOOP:  cpu time    3.0645: real time    3.0650

 eigenvalue-minimisations  : 13992
 total energy-change (2. order) :-0.7045322E-01  (-0.4738248E-02)
 number of electron      45.0000010 magnetization       0.9951050
 augmentation part       13.8144387 magnetization       1.1205037

 Broyden mixing:
  rms(total) = 0.62390E-01    rms(broyden)= 0.62235E-01
  rms(prec ) = 0.10727E+00
  weight for this iteration     100.00

 eigenvalues of (default mixing * dielectric matrix)
  average eigenvalue GAMMA=   0.9820
  1.8631  1.8631  0.9259  0.9259  0.3293  0.6657  0.6657  0.6170

 Free energy of the ion-electron system (eV)
  ---------------------------------------------------
  alpha Z        PSCENC =       192.12196154
  Ewald energy   TEWEN  =     -2745.54389990
  -Hartree energ DENC   =     -1056.90904247
  -exchange      EXHF   =         0.00000000
  -V(xc)+E(xc)   XCENC  =       152.30216560
  PAW double counting   =      2678.02848190    -2763.63356882
  entropy T*S    EENTRO =         0.00000000
  eigenvalues    EBANDS =      -129.69895525
  atomic energy  EATOM  =      3631.48514882
  Solvation  Ediel_sol  =         0.00000000
  ---------------------------------------------------
  free energy    TOTEN  =       -41.84770859 eV

  energy without entropy =      -41.84770859  energy(sigma->0) =      -41.84770859


--------------------------------------------------------------------------------------------------------




----------------------------------------- Iteration    1(  14)  ---------------------------------------


    POTLOK:  cpu time    0.0190: real time    0.0195
    SETDIJ:  cpu time    0.0060: real time    0.0058
    EDDIAG:  cpu time    0.9529: real time    0.9518
  RMM-DIIS:  cpu time    1.5558: real time    1.5555
    ORTHCH:  cpu time    0.1370: real time    0.1375
 BZINTS: Fermi energy:  2.421784; 45.000000 electrons
         Band energy:-129.882575;  BLOECHL correction: -0.012832
       DOS:  cpu time    0.1370: real time    0.1370
    CHARGE:  cpu time    0.0950: real time    0.0946
    MIXING:  cpu time    0.0000: real time    0.0006
    --------------------------------------------
      LOOP:  cpu time    2.9036: real time    2.9044

 eigenvalue-minimisations  : 13853
 total energy-change (2. order) :-0.1199643E-01  (-0.7263345E-03)
 number of electron      45.0000010 magnetization       0.9840703
 augmentation part       13.7947208 magnetization       1.0933574

 Broyden mixing:
  rms(total) = 0.31694E-01    rms(broyden)= 0.31648E-01
  rms(prec ) = 0.43981E-01
  weight for this iteration     100.00

 eigenvalues of (default mixing * dielectric matrix)
  average eigenvalue GAMMA=   1.0576
  2.2012  2.2012  1.0753  1.0753  0.3293  0.6737  0.6737  0.6443  0.6443

 Free energy of the ion-electron system (eV)
  ---------------------------------------------------
  alpha Z        PSCENC =       192.12196154
  Ewald energy   TEWEN  =     -2745.54389990
  -Hartree energ DENC   =     -1056.75298817
  -exchange      EXHF   =         0.00000000
  -V(xc)+E(xc)   XCENC  =       152.31371420
  PAW double counting   =      2680.70178412    -2766.30285035
  entropy T*S    EENTRO =         0.00000000
  eigenvalues    EBANDS =      -129.88257527
  atomic energy  EATOM  =      3631.48514882
  Solvation  Ediel_sol  =         0.00000000
  ---------------------------------------------------
  free energy    TOTEN  =       -41.85970501 eV

  energy without entropy =      -41.85970501  energy(sigma->0) =      -41.85970501


--------------------------------------------------------------------------------------------------------




----------------------------------------- Iteration    1(  15)  ---------------------------------------


    POTLOK:  cpu time    0.0200: real time    0.0194
    SETDIJ:  cpu time    0.0060: real time    0.0059
    EDDIAG:  cpu time    0.9519: real time    0.9519
[...]
     33      16.2804      0.00000
     34      16.6925      0.00000
     35      17.3431      0.00000
     36      17.9469      0.00000
     37      19.1330      0.00000
     38      19.2914      0.00000
     39      20.0925      0.00000
     40      20.2909      0.00000
     41      20.5289      0.00000
     42      21.6088      0.00000
     43      23.0202      0.00000
     44      24.8751      0.00000
     45      27.1217      0.00000
     46      27.6215      0.00000
     47      28.4577      0.00000
     48      28.9698      0.00000

 k-point    68 :       0.4375   -0.2500    0.4167
  band No.  band energies     occupation 
      1     -14.4371      1.00000
      2     -14.4021      1.00000
      3     -13.9004      1.00000
      4     -13.7946      1.00000
      5      -3.3690      1.00000
      6      -3.0964      1.00000
      7      -1.8685      1.00000
      8      -1.7863      1.00000
      9      -1.0555      1.00000
     10      -0.9299      1.00000
     11      -0.7466      1.00000
     12      -0.2909      1.00000
     13       0.2712      1.00000
     14       0.4519      1.00000
     15       0.6418      1.00000
     16       0.8222      1.00000
     17       0.8255      1.00000
     18       1.0617      1.00000
     19       1.1138      1.00000
     20       1.7735      1.00000
     21       2.1168      1.00000
     22       2.2441      1.00000
     23       5.4003      0.00000
     24       5.7313      0.00000
     25       6.2534      0.00000
     26       6.6925      0.00000
     27      12.1346      0.00000
     28      12.3500      0.00000
     29      14.2340      0.00000
     30      15.0619      0.00000
     31      15.4092      0.00000
     32      15.6902      0.00000
     33      16.1477      0.00000
     34      16.2836      0.00000
     35      17.6182      0.00000
     36      17.8999      0.00000
     37      18.9332      0.00000
     38      19.0076      0.00000
     39      19.8597      0.00000
     40      20.1659      0.00000
     41      21.3917      0.00000
     42      21.7245      0.00000
     43      22.8393      0.00000
     44      23.6846      0.00000
     45      27.2066      0.00000
     46      27.7353      0.00000
     47      29.2651      0.00000
     48      29.5453      0.00000

 k-point    69 :       0.0625   -0.0833    0.4167
  band No.  band energies     occupation 
      1     -15.2563      1.00000
      2     -14.9785      1.00000
      3     -14.0535      1.00000
      4     -13.8567      1.00000
      5      -2.5590      1.00000
      6      -2.3020      1.00000
      7      -2.1382      1.00000
      8      -1.6851      1.00000
      9      -1.0869      1.00000
     10      -0.6560      1.00000
     11      -0.4501      1.00000
     12      -0.3024      1.00000
     13       0.0025      1.00000
     14       0.2432      1.00000
     15       0.7130      1.00000
     16       1.3680      1.00000
     17       1.5285      1.00000
     18       1.6279      1.00000
     19       1.8401      1.00000
     20       2.2570      1.00000
     21       2.3387      1.00000
     22       2.5424      1.00000
     23       5.4385      0.00000
     24       5.7121      0.00000
     25       6.2251      0.00000
     26       6.3975      0.00000
     27      10.9567      0.00000
     28      11.5193      0.00000
     29      13.2601      0.00000
     30      14.5412      0.00000
     31      16.0337      0.00000
     32      16.4598      0.00000
     33      16.9608      0.00000
     34      17.3316      0.00000
     35      18.2218      0.00000
     36      18.6009      0.00000
     37      19.6494      0.00000
     38      20.1293      0.00000
     39      20.8339      0.00000
     40      21.5219      0.00000
     41      21.8690      0.00000
     42      22.4716      0.00000
     43      23.9549      0.00000
     44      24.7504      0.00000
     45      25.2303      0.00000
     46      26.5293      0.00000
     47      27.6249      0.00000
     48      27.8217      0.00000

 k-point    70 :       0.1875   -0.0833    0.4167
  band No.  band energies     occupation 
      1     -15.0573      1.00000
      2     -14.8165      1.00000
      3     -13.9891      1.00000
      4     -13.8366      1.00000
      5      -2.3433      1.00000
      6      -2.3146      1.00000
      7      -2.0507      1.00000
      8      -1.5670      1.00000
      9      -1.4525      1.00000
     10      -1.0083      1.00000
     11      -0.5473      1.00000
     12      -0.4302      1.00000
     13      -0.0230      1.00000
     14       0.1440      1.00000
     15       0.6694      1.00000
     16       0.9426      1.00000
     17       1.3750      1.00000
     18       1.4669      1.00000
     19       1.6632      1.00000
     20       2.1635      1.00000
     21       2.4349      1.00000
     22       2.5995      1.00000
     23       5.2881      0.00000
     24       5.6333      0.00000
     25       6.0502      0.00000
     26       6.5270      0.00000
     27      11.6827      0.00000
     28      12.2397      0.00000
     29      13.5765      0.00000
     30      15.0565      0.00000
     31      15.8870      0.00000
     32      16.3421      0.00000
     33      16.8265      0.00000
     34      17.1559      0.00000
     35      17.7010      0.00000
     36      17.9149      0.00000
     37      19.7946      0.00000
     38      19.9178      0.00000
     39      20.2944      0.00000
     40      20.4859      0.00000
     41      20.8731      0.00000
     42      21.7014      0.00000
     43      23.6747      0.00000
     44      25.2894      0.00000
     45      26.2738      0.00000
     46      26.6542      0.00000
     47      28.2433      0.00000
     48      29.0385      0.00000

 k-point    71 :       0.3125   -0.0833    0.4167
  band No.  band energies     occupation 
      1     -14.7403      1.00000
      2     -14.5702      1.00000
      3     -13.9003      1.00000
      4     -13.8255      1.00000
      5      -2.7717      1.00000
      6      -2.6382      1.00000
      7      -1.7370      1.00000
      8      -1.5755      1.00000
      9      -1.4309      1.00000
     10      -1.3191      1.00000
     11      -0.5565      1.00000
     12      -0.2554      1.00000
     13      -0.0659      1.00000
     14       0.0859      1.00000
     15       0.4862      1.00000
     16       0.8781      1.00000
     17       0.9561      1.00000
     18       1.2360      1.00000
     19       1.5462      1.00000
     20       1.9609      1.00000
     21       2.2883      1.00000
     22       2.4955      1.00000
     23       5.2081      0.00000
     24       5.6406      0.00000
     25       6.0892      0.00000
     26       6.6086      0.00000
     27      12.4192      0.00000
     28      12.9944      0.00000
     29      13.9138      0.00000
     30      14.9375      0.00000
     31      15.7799      0.00000
     32      15.9873      0.00000
     33      16.2465      0.00000
     34      16.5260      0.00000
     35      17.2939      0.00000
     36      18.0385      0.00000
     37      19.0360      0.00000
     38      19.4615      0.00000
     39      20.0979      0.00000
     40      20.2200      0.00000
     41      20.8892      0.00000
     42      21.8383      0.00000
     43      23.1180      0.00000
     44      24.6962      0.00000
     45      26.3880      0.00000
     46      27.0554      0.00000
     47      28.3211      0.00000
     48      28.6045      0.00000

 k-point    72 :       0.4375   -0.0833    0.4167
  band No.  band energies     occupation 
      1     -14.4725      1.00000
      2     -14.3760      1.00000
      3     -13.8521      1.00000
      4     -13.8398      1.00000
      5      -3.3282      1.00000
      6      -3.0286      1.00000
      7      -1.6246      1.00000
      8      -1.5076      1.00000
      9      -1.3570      1.00000
     10      -1.1757      1.00000
     11      -0.7803      1.00000
     12      -0.3027      1.00000
     13       0.3119      1.00000
     14       0.4264      1.00000
     15       0.5994      1.00000
     16       0.6880      1.00000
     17       0.8634      1.00000
     18       1.0436      1.00000
     19       1.1466      1.00000
     20       1.7365      1.00000
     21       2.1323      1.00000
     22       2.2809      1.00000
     23       5.3348      0.00000
     24       5.5782      0.00000
     25       6.2185      0.00000
     26       6.6215      0.00000
     27      12.7389      0.00000
     28      13.2668      0.00000
     29      14.2507      0.00000
     30      14.5995      0.00000
     31      15.1804      0.00000
     32      15.5146      0.00000
     33      16.0855      0.00000
     34      16.2539      0.00000
     35      17.5829      0.00000
     36      17.6443      0.00000
     37      19.0257      0.00000
     38      19.3085      0.00000
     39      19.8604      0.00000
     40      20.1437      0.00000
     41      21.4662      0.00000
     42      22.2732      0.00000
     43      22.7507      0.00000
     44      23.8135      0.00000
     45      25.6929      0.00000
     46      26.1128      0.00000
     47      29.6736      0.00000
     48      30.1451      0.00000


--------------------------------------------------------------------------------------------------------


 soft charge-density along one line, spin component           1
         0         1         2         3         4         5         6         7         8         9
 total charge-density along one line
 
 soft charge-density along one line, spin component           2
         0         1         2         3         4         5         6         7         8         9
 total charge-density along one line
 
 pseudopotential strength for first ion, spin component:           1
  1.182  -0.052   0.000   0.000  -0.000
 -0.052  -0.050  -0.000  -0.000   0.000
  0.000  -0.000  -0.302   0.001  -0.000
  0.000  -0.000   0.001  -0.303  -0.000
 -0.000   0.000  -0.000  -0.000  -0.303
 pseudopotential strength for first ion, spin component:           2
  1.182  -0.053   0.000   0.000  -0.000
 -0.053  -0.050  -0.000  -0.000   0.000
  0.000  -0.000  -0.305   0.001   0.000
  0.000  -0.000   0.001  -0.306  -0.000
 -0.000   0.000   0.000  -0.000  -0.306
 total augmentation occupancy for first ion, spin component:           1
  0.756  -0.099   0.000   0.000   0.000
 -0.099   0.015   0.000   0.000   0.000
  0.000   0.000   0.104   0.008   0.000
  0.000   0.000   0.008   0.087   0.000
  0.000   0.000   0.000   0.000   0.079
 total augmentation occupancy for first ion, spin component:           2
  0.028  -0.002   0.000   0.000   0.000
 -0.002   0.000   0.000   0.000   0.000
  0.000   0.000   0.002   0.002   0.000
  0.000   0.000   0.002   0.002   0.000
  0.000   0.000   0.000   0.000   0.000


------------------------ aborting loop because EDIFF is reached ----------------------------------------


 


 total charge     
 
# of ion     s       p       d       tot
----------------------------------------
  1        0.095   0.195   0.000   0.290
  2        0.080   0.164   0.000   0.244
  3        0.422   0.653   7.283   8.358
  4        0.412   0.574   8.278   9.263
  5        1.563   3.433   0.000   4.996
  6        1.557   3.448   0.000   5.004
  7        1.563   3.433   0.000   4.996
  8        1.557   3.448   0.000   5.004
------------------------------------------------
tot        7.248  15.347  15.560  38.155
 


 magnetization (x)
 
# of ion     s       p       d       tot
----------------------------------------
  1        0.003   0.003   0.000   0.007
  2        0.000   0.000   0.000   0.000
  3       -0.001   0.001  -0.192  -0.192
  4        0.008   0.006   1.386   1.400
  5        0.003  -0.121   0.000  -0.118
  6        0.003   0.023   0.000   0.027
  7        0.003  -0.121   0.000  -0.118
  8        0.003   0.023   0.000   0.027
------------------------------------------------
tot        0.023  -0.184   1.194   1.033
 
    CHARGE:  cpu time    0.0960: real time    0.0951
    FORLOC:  cpu time    0.0000: real time    0.0007
    FORNL :  cpu time    0.9319: real time    0.9304
    STRESS:  cpu time    2.8666: real time    2.8662
    FORCOR:  cpu time    0.0190: real time    0.0188
    FORHAR:  cpu time    0.0030: real time    0.0027
    MIXING:  cpu time    0.0000: real time    0.0005
    OFIELD:  cpu time    0.0000: real time    0.0000

  FORCE on cell =-STRESS in cart. coord.  units (eV):
  Direction    XX          YY          ZZ          XY          YZ          ZX
  --------------------------------------------------------------------------------------
  Alpha Z   199.13691   199.13691   199.13691
  Ewald    -465.62602 -1538.16450  -615.40203     0.00000   354.92335    -0.00000
  Hartree   718.20027  -119.86723   604.71256    -0.00000   287.47254    -0.00000
  E(xc)    -225.77393  -226.09386  -225.79755     0.00000     0.11469    -0.00000
  Local    -883.51667  1014.81777  -623.32142    -0.00000  -643.12038     0.00000
  n-local  -150.92789  -153.52546  -151.34193    -0.07477    -0.15652    -0.13397
  augment   127.01468   129.61015   127.47708     0.00000     0.16080     0.00000
  Kinetic   681.61381   694.02636   684.61722    -1.45104     1.01049     0.53283
  Fock        0.00000     0.00000     0.00000     0.00000     0.00000     0.00000
  -------------------------------------------------------------------------------------
  Total       0.12116    -0.05986     0.08085     0.00000     0.40497     0.00000
  in kB       2.88067    -1.42320     1.92230     0.00000     9.62883     0.00000
  external pressure =        1.13 kB  Pullay stress =        0.00 kB


 VOLUME and BASIS-vectors are now :
 -----------------------------------------------------------------------------
  energy-cutoff  :      520.00
  volume of cell :       67.38
      direct lattice vectors                 reciprocal lattice vectors
     2.845126715  0.000000000  0.000000000     0.351478194  0.000000000  0.000000000
     0.000000000  5.036757945 -0.002601921     0.000000000  0.198503637 -0.071189649
     0.000000000  1.686076778  4.701419088     0.000000000  0.000109858  0.212662337

  length of vectors
     2.845126715  5.036758617  4.994616736     0.351478194  0.210883048  0.212662365


 FORCES acting on ions
    electron-ion (+dipol)            ewald-force                    non-local-force                 convergence-correction
 -----------------------------------------------------------------------------------------------
   0.899E-15 0.447E-12 0.147E-12   0.211E-15 -.178E-14 -.178E-14   0.000E+00 0.000E+00 0.000E+00   -.445E-17 -.327E-15 0.757E-15
   0.556E-15 -.891E-14 -.133E-14   0.488E-15 0.355E-14 0.000E+00   0.000E+00 0.646E-26 0.000E+00   -.918E-17 -.803E-15 -.328E-15
   0.281E-14 0.377E-13 -.153E-13   0.862E-16 -.284E-13 0.284E-13   0.000E+00 -.775E-25 0.000E+00   -.657E-14 0.152E-14 -.257E-13
   0.318E-12 0.152E-11 -.206E-11   -.889E-14 -.284E-13 -.114E-12   0.000E+00 -.155E-24 0.000E+00   -.173E-13 0.127E-13 -.473E-13
   -.139E-13 0.275E+03 -.925E+02   -.152E-13 -.288E+03 0.961E+02   -.139E-16 0.123E+02 -.369E+01   0.287E-14 0.270E-02 -.528E-02
   0.104E-12 0.268E+03 -.110E+03   0.337E-14 -.278E+03 0.116E+03   0.000E+00 0.104E+02 -.634E+01   -.156E-14 0.249E-03 0.381E-02
   -.121E-13 -.275E+03 0.925E+02   0.663E-14 0.288E+03 -.961E+02   0.139E-16 -.123E+02 0.369E+01   0.343E-14 -.270E-02 0.528E-02
   0.112E-12 -.268E+03 0.110E+03   0.611E-15 0.278E+03 -.116E+03   0.000E+00 -.104E+02 0.634E+01   -.235E-14 -.249E-03 -.381E-02
 -----------------------------------------------------------------------------------------------
   0.512E-12 0.318E-11 -.256E-11   -.127E-13 -.568E-13 0.284E-13   0.000E+00 0.355E-14 0.888E-15   -.215E-13 0.588E-13 -.860E-13
 
 
 POSITION                                       TOTAL-FORCE (eV/Angst)
 -----------------------------------------------------------------------------------
      1.42256      2.51838     -0.00130         0.000000      0.000000      0.000000
     -0.00000      3.36142      2.34941         0.000000      0.000000      0.000000
     -0.00000     -0.00000     -0.00000         0.000000      0.000000      0.000000
      1.42256      0.84304      2.35071         0.000000      0.000000      0.000000
     -0.00000      5.22266      3.52333         0.000000     -0.021124     -0.054464
      1.42256      4.26865      1.07081         0.000000     -0.008790     -0.032804
      0.00000      1.50017      1.17548        -0.000000      0.021124      0.054464
      1.42256      2.45419      3.62801         0.000000      0.008790      0.032804
 -----------------------------------------------------------------------------------
    total drift:                                0.000000      0.000000     -0.000000


--------------------------------------------------------------------------------------------------------



  FREE ENERGIE OF THE ION-ELECTRON SYSTEM (eV)
  ---------------------------------------------------
  free  energy   TOTEN  =       -42.64414990 eV

  energy  without entropy=      -42.64414990  energy(sigma->0) =      -42.64414990
 
 d Force = 0.3814749E-05[ 0.186E-05, 0.577E-05]  d Energy =-0.7230967E-04 0.761E-04
 d Force =-0.1960592E+00[-0.196E+00,-0.196E+00]  d Ewald  =-0.2164830E+00 0.204E-01


--------------------------------------------------------------------------------------------------------


    POTLOK:  cpu time    0.0260: real time    0.0252


--------------------------------------------------------------------------------------------------------




--------------------------------------------------------------------------------------------------------


  
 reached required accuracy - stopping structural energy minimisation
     LOOP+:  cpu time   24.8052: real time   24.8115
    4ORBIT:  cpu time    0.0000: real time    0.0000
 


 total charge     
 
# of ion     s       p       d       tot
----------------------------------------
  1        0.095   0.195   0.000   0.290
  2        0.080   0.164   0.000   0.244
  3        0.422   0.653   7.283   8.358
  4        0.412   0.574   8.278   9.263
  5        1.563   3.433   0.000   4.996
  6        1.557   3.448   0.000   5.004
  7        1.563   3.433   0.000   4.996
  8        1.557   3.448   0.000   5.004
------------------------------------------------
tot        7.248  15.347  15.560  38.155
 


 magnetization (x)
 
# of ion     s       p       d       tot
----------------------------------------
  1        0.003   0.003   0.000   0.007
  2        0.000   0.000   0.000   0.000
  3       -0.001   0.001  -0.192  -0.192
  4        0.008   0.006   1.386   1.400
  5        0.003  -0.121   0.000  -0.118
  6        0.003   0.023   0.000   0.027
  7        0.003  -0.121   0.000  -0.118
  8        0.003   0.023   0.000   0.027
------------------------------------------------
tot        0.023  -0.184   1.194   1.033
 
 BZINTS: Fermi energy:  3.130720; 45.000000 electrons
         Band energy:-117.955247;  BLOECHL correction: -0.008884

 total amount of memory used by VASP on root node    43688. kBytes
========================================================================

   base      :      30000. kBytes
   nonlr-proj:       4664. kBytes
   fftplans  :        397. kBytes
   grid      :       3735. kBytes
   one-center:        248. kBytes
   wavefun   :       4644. kBytes
 
  
  
 General timing and accounting informations for this job:
 ========================================================
  
                  Total CPU time used (sec):      298.066
                            User time (sec):      296.903
                          System time (sec):        1.163
                         Elapsed time (sec):      298.605
  
                   Maximum memory used (kb):       82156.
                   Average memory used (kb):           0.
  
                          Minor page faults:        74326
                          Major page faults:            0
                 Voluntary context switches:         3228
