       N       E                     dE             d eps       ncg     rms          rms(c)
DAV:   1     0.782398180899E+03    0.78240E+03   -0.37525E+04 23592   0.200E+03
DAV:   2     0.241204180181E+02   -0.75828E+03   -0.71996E+03 22888   0.588E+02
DAV:   3    -0.469249389351E+02   -0.71045E+02   -0.69569E+02 29084   0.188E+02
DAV:   4    -0.501484070796E+02   -0.32235E+01   -0.31989E+01 31667   0.359E+01
DAV:   5    -0.503284434820E+02   -0.18004E+00   -0.17983E+00 32745   0.580E+00    0.381E+01
RMM:   6    -0.519230624193E+02   -0.15946E+01   -0.22841E+02 24404   0.112E+02    0.843E+01
RMM:   7    -0.367269758418E+02    0.15196E+02   -0.32362E+01 21662   0.515E+01    0.169E+01
RMM:   8    -0.377435594132E+02   -0.10166E+01   -0.10176E+01 21860   0.212E+01    0.116E+01
RMM:   9    -0.367417744749E+02    0.10018E+01   -0.13976E+00 23550   0.661E+00    0.614E+00
RMM:  10    -0.368972741987E+02   -0.15550E+00   -0.76898E-01 23787   0.441E+00    0.329E+00
RMM:  11    -0.370309187945E+02   -0.13364E+00   -0.98935E-02 23665   0.232E+00    0.263E+00
RMM:  12    -0.370893402409E+02   -0.58421E-01   -0.59715E-02 24707   0.133E+00    0.266E+00
RMM:  13    -0.371027563962E+02   -0.13416E-01   -0.26733E-02 23370   0.824E-01    0.224E+00
RMM:  14    -0.370764518869E+02    0.26305E-01   -0.57470E-03 22252   0.413E-01    0.215E+00
RMM:  15    -0.370579867760E+02    0.18465E-01   -0.62016E-03 21823   0.372E-01    0.185E+00
RMM:  16    -0.370441433689E+02    0.13843E-01   -0.65232E-02 19571   0.102E+00    0.111E+00
RMM:  17    -0.370575639970E+02   -0.13421E-01   -0.17565E-02 21962   0.779E-01    0.122E+00
RMM:  18    -0.370601137240E+02   -0.25497E-02   -0.56994E-03 21478   0.478E-01    0.102E+00
RMM:  19    -0.370668149316E+02   -0.67012E-02   -0.44751E-03 21394   0.325E-01    0.102E+00
RMM:  20    -0.370758023940E+02   -0.89875E-02   -0.12858E-02 21889   0.511E-01    0.774E-01
RMM:  21    -0.370809230972E+02   -0.51207E-02   -0.31758E-02 22519   0.819E-01    0.545E-01
RMM:  22    -0.370821188899E+02   -0.11958E-02   -0.27980E-03 19315   0.415E-01    0.409E-01
RMM:  23    -0.370818291549E+02    0.28973E-03   -0.27980E-03 18608   0.299E-01
   1 F= -.37081829E+02 E0= -.37081829E+02  d E =-.370818E+02  mag=    -0.0630
       N       E                     dE             d eps       ncg     rms          rms(c)
DAV:   1    -0.394692099023E+02   -0.23871E+01   -0.36522E+01 21432   0.794E+01    0.167E+01
RMM:   2    -0.404531797927E+02   -0.98397E+00   -0.26828E+01 22137   0.472E+01    0.252E+01
RMM:   3    -0.371818068071E+02    0.32714E+01   -0.48778E+00 22396   0.184E+01    0.411E+00
RMM:   4    -0.372976002900E+02   -0.11579E+00   -0.12180E+00 21958   0.628E+00    0.407E+00
RMM:   5    -0.371947805644E+02    0.10282E+00   -0.22938E-01 26376   0.240E+00    0.301E+00
RMM:   6    -0.371348910540E+02    0.59890E-01   -0.50275E-02 24186   0.139E+00    0.153E+00
RMM:   7    -0.371409803315E+02   -0.60893E-02   -0.21452E-02 22782   0.857E-01    0.161E+00
RMM:   8    -0.371566063512E+02   -0.15626E-01   -0.12624E-02 22403   0.498E-01    0.194E+00
RMM:   9    -0.371260552427E+02    0.30551E-01   -0.25812E-02 20132   0.788E-01    0.125E+00
RMM:  10    -0.371185646390E+02    0.74906E-02   -0.26077E-02 20436   0.784E-01    0.785E-01
RMM:  11    -0.371230293437E+02   -0.44647E-02   -0.69976E-03 21757   0.505E-01    0.706E-01
RMM:  12    -0.371259868816E+02   -0.29575E-02   -0.25865E-03 19077   0.275E-01    0.694E-01
RMM:  13    -0.371291410338E+02   -0.31542E-02   -0.24261E-03 18948   0.241E-01    0.657E-01
RMM:  14    -0.371334646320E+02   -0.43236E-02   -0.46835E-02 20888   0.912E-01    0.612E-01
RMM:  15    -0.371315532161E+02    0.19114E-02   -0.42762E-03 20804   0.435E-01    0.495E-01
RMM:  16    -0.371342886604E+02   -0.27354E-02   -0.55211E-03 20098   0.382E-01    0.212E-01
RMM:  17    -0.371346873186E+02   -0.39866E-03   -0.23886E-03 17838   0.246E-01
   2 F= -.37134687E+02 E0= -.37134687E+02  d E =-.528582E-01  mag=     0.0043
       N       E                     dE             d eps       ncg     rms          rms(c)
DAV:   1    -0.372367176336E+02   -0.10243E+00   -0.16307E+00 22187   0.171E+01    0.371E+00
RMM:   2    -0.372639292525E+02   -0.27212E-01   -0.98992E-01 21771   0.948E+00    0.620E+00
RMM:   3    -0.371444779125E+02    0.11945E+00   -0.17537E-01 22087   0.330E+00    0.107E+00
RMM:   4    -0.371409358430E+02    0.35421E-02   -0.33835E-02 20849   0.116E+00    0.783E-01
RMM:   5    -0.371378205168E+02    0.31153E-02   -0.80215E-03 20309   0.435E-01    0.441E-01
RMM:   6    -0.371390167310E+02   -0.11962E-02   -0.23550E-03 17791   0.311E-01    0.517E-01
RMM:   7    -0.371399017717E+02   -0.88504E-03   -0.75109E-04 12668   0.171E-01    0.499E-01
RMM:   8    -0.371422348901E+02   -0.23331E-02   -0.10741E-03 14609   0.172E-01    0.571E-01
RMM:   9    -0.371360433354E+02    0.61916E-02   -0.74135E-03 18592   0.397E-01    0.400E-01
RMM:  10    -0.371365870987E+02   -0.54376E-03   -0.16615E-02 19610   0.571E-01    0.407E-01
RMM:  11    -0.371358729095E+02    0.71419E-03   -0.67730E-04 12569   0.266E-01    0.283E-01
RMM:  12    -0.371347672856E+02    0.11056E-02   -0.23955E-03 16802   0.239E-01    0.733E-02
RMM:  13    -0.371350537415E+02   -0.28646E-03   -0.29007E-04 10595   0.134E-01
   3 F= -.37135054E+02 E0= -.37135054E+02  d E =-.532246E-01  mag=    -0.0711
       N       E                     dE             d eps       ncg     rms          rms(c)
DAV:   1    -0.372855795137E+02   -0.15081E+00   -0.49201E+00 21397   0.184E+01    0.333E+00
RMM:   2    -0.373420140436E+02   -0.56435E-01   -0.53862E-01 23913   0.490E+00    0.464E+00
RMM:   3    -0.371727378723E+02    0.16928E+00   -0.22465E-01 24102   0.265E+00    0.147E+00
RMM:   4    -0.371606173620E+02    0.12121E-01   -0.48538E-02 22416   0.154E+00    0.111E+00
RMM:   5    -0.371589884845E+02    0.16289E-02   -0.16231E-02 22859   0.820E-01    0.987E-01
RMM:   6    -0.371588080869E+02    0.18040E-03   -0.47172E-03 21707   0.403E-01    0.816E-01
RMM:   7    -0.371623752677E+02   -0.35672E-02   -0.18136E-03 17758   0.252E-01    0.906E-01
RMM:   8    -0.371536126323E+02    0.87626E-02   -0.63199E-03 19352   0.386E-01    0.634E-01
RMM:   9    -0.371474648358E+02    0.61478E-02   -0.11877E-02 20232   0.588E-01    0.427E-01
RMM:  10    -0.371492383776E+02   -0.17735E-02   -0.77444E-03 21762   0.420E-01    0.382E-01
RMM:  11    -0.371496971799E+02   -0.45880E-03   -0.45764E-04 12163   0.211E-01    0.328E-01
RMM:  12    -0.371495779725E+02    0.11921E-03   -0.90508E-04 12990   0.203E-01
   4 F= -.37149578E+02 E0= -.37149578E+02  d E =-.145242E-01  mag=     0.0653
       N       E                     dE             d eps       ncg     rms          rms(c)
DAV:   1    -0.371941342468E+02   -0.44437E-01   -0.16170E+00 21577   0.106E+01    0.178E+00
RMM:   2    -0.371992607571E+02   -0.51265E-02   -0.14409E-01 23920   0.270E+00    0.227E+00
RMM:   3    -0.371603793589E+02    0.38881E-01   -0.60292E-02 23643   0.137E+00    0.814E-01
RMM:   4    -0.371565005234E+02    0.38788E-02   -0.14832E-02 21963   0.863E-01    0.648E-01
RMM:   5    -0.371569124902E+02   -0.41197E-03   -0.56583E-03 21021   0.491E-01    0.512E-01
RMM:   6    -0.371576251739E+02   -0.71268E-03   -0.16170E-03 16821   0.246E-01    0.405E-01
RMM:   7    -0.371599327076E+02   -0.23075E-02   -0.19173E-03 17967   0.235E-01    0.526E-01
RMM:   8    -0.371581501817E+02    0.17825E-02   -0.65065E-04 12266   0.175E-01    0.481E-01
RMM:   9    -0.371552649345E+02    0.28852E-02   -0.15256E-03 15604   0.205E-01    0.363E-01
RMM:  10    -0.371548597003E+02    0.40523E-03   -0.57594E-04 11029   0.207E-01    0.399E-01
RMM:  11    -0.371534052473E+02    0.14545E-02   -0.21618E-03 17433   0.220E-01    0.317E-01
RMM:  12    -0.371524388953E+02    0.96635E-03   -0.10527E-03 13500   0.210E-01    0.275E-01
RMM:  13    -0.371512894320E+02    0.11495E-02   -0.24105E-03 18724   0.243E-01    0.157E-01
RMM:  14    -0.371514957666E+02   -0.20633E-03   -0.92829E-04 13809   0.171E-01
   5 F= -.37151496E+02 E0= -.37151496E+02  d E =-.164420E-01  mag=    -0.1762
       N       E                     dE             d eps       ncg     rms          rms(c)
DAV:   1    -0.372945711133E+02   -0.14328E+00   -0.75551E+00 21327   0.306E+01    0.478E+00
RMM:   2    -0.372649980418E+02    0.29573E-01   -0.15203E+00 21969   0.122E+01    0.654E+00
RMM:   3    -0.371743908296E+02    0.90607E-01   -0.25477E-01 22822   0.459E+00    0.143E+00
RMM:   4    -0.371717101858E+02    0.26806E-02   -0.39728E-02 22144   0.136E+00    0.150E+00
RMM:   5    -0.371695187410E+02    0.21914E-02   -0.78917E-03 22511   0.569E-01    0.110E+00
RMM:   6    -0.371730263072E+02   -0.35076E-02   -0.80250E-03 20045   0.579E-01    0.108E+00
RMM:   7    -0.371833607345E+02   -0.10334E-01   -0.10781E-02 20088   0.574E-01    0.115E+00
RMM:   8    -0.371748403932E+02    0.85203E-02   -0.29054E-03 17442   0.311E-01    0.111E+00
RMM:   9    -0.371667753361E+02    0.80651E-02   -0.10602E-02 18602   0.471E-01    0.711E-01
RMM:  10    -0.371652161716E+02    0.15592E-02   -0.14525E-02 20346   0.543E-01    0.432E-01
RMM:  11    -0.371656324316E+02   -0.41626E-03   -0.50109E-03 20389   0.406E-01    0.305E-01
RMM:  12    -0.371666786914E+02   -0.10463E-02   -0.41057E-03 20787   0.302E-01    0.227E-01
RMM:  13    -0.371654370957E+02    0.12416E-02   -0.67585E-03 21718   0.368E-01    0.394E-01
RMM:  14    -0.371655392544E+02   -0.10216E-03   -0.40055E-04 12589   0.177E-01
   6 F= -.37165539E+02 E0= -.37165539E+02  d E =-.140435E-01  mag=    -0.0451
       N       E                     dE             d eps       ncg     rms          rms(c)
DAV:   1    -0.383017829388E+02   -0.11363E+01   -0.67514E+01 21332   0.920E+01    0.156E+01
RMM:   2    -0.382554991338E+02    0.46284E-01   -0.13193E+01 22184   0.357E+01    0.192E+01
RMM:   3    -0.373203095275E+02    0.93519E+00   -0.31426E+00 23371   0.152E+01    0.586E+00
RMM:   4    -0.372100607047E+02    0.11025E+00   -0.45782E-01 21657   0.535E+00    0.422E+00
RMM:   5    -0.372038220722E+02    0.62386E-02   -0.69722E-02 24792   0.141E+00    0.318E+00
RMM:   6    -0.371920149014E+02    0.11807E-01   -0.73035E-02 22819   0.137E+00    0.257E+00
RMM:   7    -0.371765091042E+02    0.15506E-01   -0.32462E-02 22223   0.135E+00    0.122E+00
RMM:   8    -0.371765899176E+02   -0.80813E-04   -0.13568E-02 21562   0.854E-01    0.512E-01
RMM:   9    -0.371767631187E+02   -0.17320E-03   -0.35251E-03 21391   0.348E-01
   7 F= -.37176763E+02 E0= -.37176763E+02  d E =-.252674E-01  mag=    -0.5629
       N       E                     dE             d eps       ncg     rms          rms(c)
DAV:   1    -0.373889708580E+02   -0.21238E+00   -0.11235E+01 21372   0.369E+01    0.512E+00
RMM:   2    -0.374074652822E+02   -0.18494E-01   -0.24539E+00 22468   0.149E+01    0.678E+00
RMM:   3    -0.372020196482E+02    0.20545E+00   -0.55380E-01 23343   0.629E+00    0.207E+00
RMM:   4    -0.371901781036E+02    0.11842E-01   -0.42094E-02 21244   0.148E+00    0.952E-01
RMM:   5    -0.371862213608E+02    0.39567E-02   -0.47357E-03 22112   0.509E-01    0.537E-01
RMM:   6    -0.371862487800E+02   -0.27419E-04   -0.46265E-03 19211   0.362E-01    0.398E-01
RMM:   7    -0.371854739945E+02    0.77479E-03   -0.18692E-03 16216   0.260E-01    0.155E-01
RMM:   8    -0.371854645418E+02    0.94527E-05   -0.29556E-04 11548   0.164E-01
   8 F= -.37185465E+02 E0= -.37185465E+02  d E =-.339688E-01  mag=    -0.5766
       N       E                     dE             d eps       ncg     rms          rms(c)
DAV:   1    -0.373057106110E+02   -0.12024E+00   -0.21271E+00 21874   0.181E+01    0.331E+00
RMM:   2    -0.373033607847E+02    0.23498E-02   -0.91909E-01 21358   0.907E+00    0.453E+00
RMM:   3    -0.372197182356E+02    0.83643E-01   -0.20842E-01 22367   0.377E+00    0.116E+00
RMM:   4    -0.372166036958E+02    0.31145E-02   -0.18441E-02 20905   0.108E+00    0.588E-01
RMM:   5    -0.372158785911E+02    0.72510E-03   -0.20629E-03 18008   0.272E-01    0.306E-01
RMM:   6    -0.372155385301E+02    0.34006E-03   -0.13324E-03 14763   0.202E-01
   9 F= -.37215539E+02 E0= -.37215539E+02  d E =-.300740E-01  mag=    -0.5785
       N       E                     dE             d eps       ncg     rms          rms(c)
DAV:   1    -0.378929085514E+02   -0.67703E+00   -0.14689E+01 21746   0.472E+01    0.825E+00
RMM:   2    -0.378235486704E+02    0.69360E-01   -0.62048E+00 21352   0.234E+01    0.113E+01
RMM:   3    -0.373104691446E+02    0.51308E+00   -0.13708E+00 22347   0.974E+00    0.301E+00
RMM:   4    -0.372886700567E+02    0.21799E-01   -0.13015E-01 21137   0.289E+00    0.155E+00
RMM:   5    -0.372843572040E+02    0.43129E-02   -0.15548E-02 23448   0.749E-01    0.760E-01
RMM:   6    -0.372828272638E+02    0.15299E-02   -0.89912E-03 20699   0.531E-01    0.569E-01
RMM:   7    -0.372822676199E+02    0.55964E-03   -0.39455E-03 19554   0.388E-01    0.312E-01
RMM:   8    -0.372828411660E+02   -0.57355E-03   -0.12029E-03 14198   0.336E-01    0.201E-01
RMM:   9    -0.372837868110E+02   -0.94564E-03   -0.94991E-04 13384   0.235E-01    0.152E-01
RMM:  10    -0.372847832923E+02   -0.99648E-03   -0.87285E-04 12792   0.231E-01    0.122E-01
RMM:  11    -0.372855837916E+02   -0.80050E-03   -0.77089E-04 13001   0.210E-01    0.913E-02
RMM:  12    -0.372864570497E+02   -0.87326E-03   -0.13476E-03 14927   0.258E-01    0.820E-02
RMM:  13    -0.372869062290E+02   -0.44918E-03   -0.44703E-04 11756   0.163E-01    0.732E-02
RMM:  14    -0.372871492669E+02   -0.24304E-03   -0.23990E-04 11171   0.114E-01
  10 F= -.37287149E+02 E0= -.37287149E+02  d E =-.101685E+00  mag=    -0.4362
       N       E                     dE             d eps       ncg     rms          rms(c)
DAV:   1    -0.397365709509E+02   -0.24497E+01   -0.58531E+01 22083   0.945E+01    0.156E+01
RMM:   2    -0.393929527599E+02    0.34362E+00   -0.25441E+01 21367   0.470E+01    0.225E+01
RMM:   3    -0.373863683179E+02    0.20066E+01   -0.52712E+00 22167   0.193E+01    0.540E+00
RMM:   4    -0.373385552658E+02    0.47813E-01   -0.57419E-01 21685   0.571E+00    0.353E+00
RMM:   5    -0.373236541527E+02    0.14901E-01   -0.16074E-01 23713   0.189E+00    0.228E+00
RMM:   6    -0.372945348028E+02    0.29119E-01   -0.42522E-02 22487   0.116E+00    0.119E+00
RMM:   7    -0.372930655871E+02    0.14692E-02   -0.26856E-02 21261   0.864E-01    0.639E-01
RMM:   8    -0.372902213317E+02    0.28443E-02   -0.62122E-03 21950   0.580E-01    0.342E-01
RMM:   9    -0.372903663345E+02   -0.14500E-03   -0.20890E-03 18626   0.288E-01
  11 F= -.37290366E+02 E0= -.37290366E+02  d E =-.104902E+00  mag=    -0.0051
       N       E                     dE             d eps       ncg     rms          rms(c)
DAV:   1    -0.382661650477E+02   -0.97594E+00   -0.22491E+01 21747   0.605E+01    0.110E+01
RMM:   2    -0.382099442005E+02    0.56221E-01   -0.84491E+00 21411   0.282E+01    0.141E+01
RMM:   3    -0.374119798046E+02    0.79796E+00   -0.23440E+00 22449   0.126E+01    0.502E+00
RMM:   4    -0.373470314585E+02    0.64948E-01   -0.22027E-01 21207   0.407E+00    0.245E+00
RMM:   5    -0.373406158805E+02    0.64156E-02   -0.22784E-02 23957   0.876E-01    0.147E+00
RMM:   6    -0.373362742536E+02    0.43416E-02   -0.67028E-03 21027   0.495E-01    0.628E-01
RMM:   7    -0.373352523013E+02    0.10220E-02   -0.45143E-03 20073   0.563E-01    0.123E-01
RMM:   8    -0.373353066425E+02   -0.54341E-04   -0.66613E-04 12271   0.176E-01
  12 F= -.37335307E+02 E0= -.37335307E+02  d E =-.149842E+00  mag=     0.0010
       N       E                     dE             d eps       ncg     rms          rms(c)
DAV:   1    -0.373408109712E+02   -0.55587E-02   -0.78081E-01 21452   0.959E+00    0.686E-01
RMM:   2    -0.373447048620E+02   -0.38939E-02   -0.82931E-02 22646   0.243E+00    0.618E-01
RMM:   3    -0.373412966183E+02    0.34082E-02   -0.73188E-03 20229   0.726E-01    0.300E-01
RMM:   4    -0.373407359487E+02    0.56067E-03   -0.99699E-04 13245   0.284E-01    0.169E-01
RMM:   5    -0.373405723264E+02    0.16362E-03   -0.30658E-04 11201   0.155E-01    0.909E-02
RMM:   6    -0.373405539171E+02    0.18409E-04   -0.10825E-04 11064   0.894E-02
  13 F= -.37340554E+02 E0= -.37340554E+02  d E =-.524727E-02  mag=    -0.0000
       N       E                     dE             d eps       ncg     rms          rms(c)
DAV:   1    -0.373484244100E+02   -0.78521E-02   -0.45028E+00 21312   0.231E+01    0.160E+00
RMM:   2    -0.373713265511E+02   -0.22902E-01   -0.47592E-01 23178   0.582E+00    0.149E+00
RMM:   3    -0.373517697028E+02    0.19557E-01   -0.40767E-02 22043   0.171E+00    0.687E-01
RMM:   4    -0.373487054040E+02    0.30643E-02   -0.63072E-03 20193   0.639E-01    0.392E-01
RMM:   5    -0.373477411443E+02    0.96426E-03   -0.11284E-03 13265   0.257E-01    0.174E-01
RMM:   6    -0.373476477216E+02    0.93423E-04   -0.38128E-04 11721   0.154E-01
  14 F= -.37347648E+02 E0= -.37347648E+02  d E =-.123411E-01  mag=    -0.0000
       N       E                     dE             d eps       ncg     rms          rms(c)
DAV:   1    -0.373521412570E+02   -0.44001E-02   -0.44855E-01 24041   0.824E+00    0.614E-01
RMM:   2    -0.373528615451E+02   -0.72029E-03   -0.49081E-02 23950   0.195E+00    0.459E-01
RMM:   3    -0.373511531097E+02    0.17084E-02   -0.25378E-03 16657   0.467E-01    0.244E-01
RMM:   4    -0.373504013303E+02    0.75178E-03   -0.10209E-03 12679   0.250E-01    0.113E-01
RMM:   5    -0.373503799456E+02    0.21385E-04   -0.30942E-04 11560   0.153E-01    0.735E-02
RMM:   6    -0.373503911988E+02   -0.11253E-04   -0.88252E-05 11154   0.924E-02
  15 F= -.37350391E+02 E0= -.37350391E+02  d E =-.274348E-02  mag=    -0.0000
       N       E                     dE             d eps       ncg     rms          rms(c)
DAV:   1    -0.373543916538E+02   -0.40117E-02   -0.71074E-01 23746   0.103E+01    0.770E-01
RMM:   2    -0.373555107597E+02   -0.11191E-02   -0.77696E-02 24070   0.246E+00    0.581E-01
RMM:   3    -0.373528424075E+02    0.26684E-02   -0.42682E-03 19037   0.586E-01    0.309E-01
RMM:   4    -0.373517479799E+02    0.10944E-02   -0.18236E-03 15718   0.313E-01    0.166E-01
RMM:   5    -0.373516499908E+02    0.97989E-04   -0.60928E-04 12361   0.186E-01    0.104E-01
RMM:   6    -0.373516266171E+02    0.23374E-04   -0.14038E-04 11434   0.112E-01
  16 F= -.37351627E+02 E0= -.37351627E+02  d E =-.397890E-02  mag=    -0.0000
