       N       E                     dE             d eps       ncg     rms          rms(c)
DAV:   1     0.222630008456E+03    0.22263E+03   -0.22807E+04 27840   0.112E+03
DAV:   2    -0.378080831569E+02   -0.26044E+03   -0.22946E+03 34392   0.238E+02
DAV:   3    -0.504510789944E+02   -0.12643E+02   -0.12579E+02 30264   0.560E+01
DAV:   4    -0.505138870563E+02   -0.62808E-01   -0.62804E-01 38976   0.409E+00
DAV:   5    -0.505143028792E+02   -0.41582E-03   -0.41582E-03 30312   0.342E-01    0.304E+01
RMM:   6    -0.480399850301E+02    0.24743E+01   -0.71581E+01 28766   0.484E+01    0.400E+01
RMM:   7    -0.377617821270E+02    0.10278E+02   -0.20060E+01 27648   0.239E+01    0.619E+00
RMM:   8    -0.386808970409E+02   -0.91911E+00   -0.59587E-01 27743   0.491E+00    0.353E+00
RMM:   9    -0.389569990826E+02   -0.27610E+00   -0.16030E-01 28124   0.261E+00    0.250E+00
RMM:  10    -0.391780004291E+02   -0.22100E+00   -0.64708E-02 27721   0.176E+00    0.143E+00
RMM:  11    -0.392868350092E+02   -0.10883E+00   -0.45506E-02 27798   0.146E+00    0.609E-01
RMM:  12    -0.392931062748E+02   -0.62713E-02   -0.78989E-03 28054   0.597E-01    0.316E-01
RMM:  13    -0.392946229255E+02   -0.15167E-02   -0.22351E-03 27342   0.315E-01    0.122E-01
RMM:  14    -0.392949215150E+02   -0.29859E-03   -0.23548E-04 20210   0.113E-01
   1 F= -.39294922E+02 E0= -.39294922E+02  d E =-.392949E+02  mag=     0.0204
       N       E                     dE             d eps       ncg     rms          rms(c)
DAV:   1    -0.401739638056E+02   -0.87934E+00   -0.98787E+01 28224   0.520E+01    0.642E+00
RMM:   2    -0.397321318942E+02    0.44183E+00   -0.29060E+00 27648   0.104E+01    0.268E+00
RMM:   3    -0.396479361566E+02    0.84196E-01   -0.36739E-01 27689   0.332E+00    0.208E+00
RMM:   4    -0.395863731013E+02    0.61563E-01   -0.42052E-02 28570   0.126E+00    0.641E-01
RMM:   5    -0.395789108196E+02    0.74623E-02   -0.58410E-03 27690   0.405E-01    0.304E-01
RMM:   6    -0.395789398375E+02   -0.29018E-04   -0.53849E-04 20765   0.164E-01
   2 F= -.39578940E+02 E0= -.39578940E+02  d E =-.284018E+00  mag=     0.0136
       N       E                     dE             d eps       ncg     rms          rms(c)
DAV:   1    -0.396130113037E+02   -0.34100E-01   -0.50103E+00 36024   0.122E+01    0.144E+00
RMM:   2    -0.395947440648E+02    0.18267E-01   -0.14953E-01 27648   0.236E+00    0.695E-01
RMM:   3    -0.395889968742E+02    0.57472E-02   -0.19208E-02 27663   0.754E-01    0.508E-01
RMM:   4    -0.395864866349E+02    0.25102E-02   -0.25273E-03 26864   0.306E-01    0.252E-01
RMM:   5    -0.395862136630E+02    0.27297E-03   -0.49676E-04 21130   0.141E-01    0.199E-01
RMM:   6    -0.395859505172E+02    0.26315E-03   -0.51629E-04 20977   0.148E-01
   3 F= -.39585951E+02 E0= -.39585951E+02  d E =-.291029E+00  mag=     0.0083
       N       E                     dE             d eps       ncg     rms          rms(c)
DAV:   1    -0.398344767963E+02   -0.24826E+00   -0.27657E+01 27888   0.269E+01    0.305E+00
RMM:   2    -0.397392960707E+02    0.95181E-01   -0.88963E-01 27648   0.548E+00    0.167E+00
RMM:   3    -0.397188911121E+02    0.20405E-01   -0.10740E-01 27648   0.182E+00    0.105E+00
RMM:   4    -0.397058663742E+02    0.13025E-01   -0.14915E-02 28000   0.760E-01    0.356E-01
RMM:   5    -0.397076997236E+02   -0.18333E-02   -0.49130E-03 27809   0.450E-01    0.232E-01
RMM:   6    -0.397086800246E+02   -0.98030E-03   -0.12425E-03 22614   0.237E-01    0.157E-01
RMM:   7    -0.397091097855E+02   -0.42976E-03   -0.93301E-04 21919   0.202E-01    0.858E-02
RMM:   8    -0.397092411130E+02   -0.13133E-03   -0.26654E-04 18951   0.109E-01
   4 F= -.39709241E+02 E0= -.39709241E+02  d E =-.123291E+00  mag=    -0.0005
       N       E                     dE             d eps       ncg     rms          rms(c)
DAV:   1    -0.410724760606E+02   -0.13634E+01   -0.24421E+02 28128   0.823E+01    0.921E+00
RMM:   2    -0.401989683205E+02    0.87351E+00   -0.91009E+00 27648   0.177E+01    0.530E+00
RMM:   3    -0.398900815748E+02    0.30889E+00   -0.93924E-01 27648   0.525E+00    0.352E+00
RMM:   4    -0.396978404010E+02    0.19224E+00   -0.15500E-01 27868   0.222E+00    0.108E+00
RMM:   5    -0.396704235759E+02    0.27417E-01   -0.39918E-02 28122   0.110E+00    0.329E-01
RMM:   6    -0.396721659568E+02   -0.17424E-02   -0.29845E-03 27730   0.345E-01    0.116E-01
RMM:   7    -0.396724363359E+02   -0.27038E-03   -0.34177E-04 20211   0.117E-01
   5 F= -.39672436E+02 E0= -.39672436E+02  d E =-.864858E-01  mag=     0.0000
       N       E                     dE             d eps       ncg     rms          rms(c)
DAV:   1    -0.403327559410E+02   -0.66059E+00   -0.82904E+01 27696   0.435E+01    0.552E+00
RMM:   2    -0.399659800227E+02    0.36678E+00   -0.26903E+00 27648   0.932E+00    0.317E+00
RMM:   3    -0.398916371537E+02    0.74343E-01   -0.37716E-01 27652   0.332E+00    0.240E+00
RMM:   4    -0.398070307171E+02    0.84606E-01   -0.53771E-02 28233   0.130E+00    0.766E-01
RMM:   5    -0.397961383210E+02    0.10892E-01   -0.17135E-02 27855   0.671E-01    0.196E-01
RMM:   6    -0.397967332766E+02   -0.59496E-03   -0.82039E-04 21694   0.218E-01    0.789E-02
RMM:   7    -0.397968745733E+02   -0.14130E-03   -0.43097E-04 20223   0.114E-01
   6 F= -.39796875E+02 E0= -.39796875E+02  d E =-.210924E+00  mag=     0.0000
       N       E                     dE             d eps       ncg     rms          rms(c)
DAV:   1    -0.399596507844E+02   -0.16292E+00   -0.18137E+01 30192   0.198E+01    0.260E+00
RMM:   2    -0.399003742368E+02    0.59277E-01   -0.49288E-01 27648   0.382E+00    0.162E+00
RMM:   3    -0.398739810084E+02    0.26393E-01   -0.60001E-02 27648   0.142E+00    0.130E+00
RMM:   4    -0.398462887964E+02    0.27692E-01   -0.23912E-02 27964   0.806E-01    0.210E-01
RMM:   5    -0.398461296428E+02    0.15915E-03   -0.15783E-03 26130   0.250E-01    0.847E-02
RMM:   6    -0.398463126589E+02   -0.18302E-03   -0.13339E-04 20110   0.844E-02
   7 F= -.39846313E+02 E0= -.39846313E+02  d E =-.494381E-01  mag=     0.0000
       N       E                     dE             d eps       ncg     rms          rms(c)
DAV:   1    -0.398494413493E+02   -0.33117E-02   -0.36821E-01 39336   0.280E+00    0.363E-01
RMM:   2    -0.398482350521E+02    0.12063E-02   -0.96308E-03 27648   0.516E-01    0.227E-01
RMM:   3    -0.398476908995E+02    0.54415E-03   -0.11297E-03 24159   0.200E-01    0.181E-01
RMM:   4    -0.398471578431E+02    0.53306E-03   -0.50161E-04 19726   0.122E-01    0.251E-02
RMM:   5    -0.398471648421E+02   -0.69990E-05   -0.54230E-05 14758   0.457E-02    0.139E-02
RMM:   6    -0.398471707389E+02   -0.58968E-05   -0.81307E-06 13894   0.206E-02
   8 F= -.39847171E+02 E0= -.39847171E+02  d E =-.502962E-01  mag=     0.0000
       N       E                     dE             d eps       ncg     rms          rms(c)
DAV:   1    -0.398522810697E+02   -0.51162E-02   -0.41286E+00 27936   0.944E+00    0.713E-01
RMM:   2    -0.398563311857E+02   -0.40501E-02   -0.87277E-02 27648   0.154E+00    0.468E-01
RMM:   3    -0.398538377220E+02    0.24935E-02   -0.40573E-03 27644   0.374E-01    0.315E-01
RMM:   4    -0.398524488360E+02    0.13889E-02   -0.10599E-03 23071   0.184E-01    0.630E-02
RMM:   5    -0.398524377411E+02    0.11095E-04   -0.12779E-04 19859   0.736E-02    0.240E-02
RMM:   6    -0.398524512989E+02   -0.13558E-04   -0.20135E-05 16924   0.289E-02
   9 F= -.39852451E+02 E0= -.39852451E+02  d E =-.528056E-02  mag=     0.0000
       N       E                     dE             d eps       ncg     rms          rms(c)
DAV:   1    -0.398531715933E+02   -0.73385E-03   -0.26777E-01 29880   0.238E+00    0.182E-01
RMM:   2    -0.398534275991E+02   -0.25601E-03   -0.56338E-03 27597   0.385E-01    0.117E-01
RMM:   3    -0.398532742428E+02    0.15336E-03   -0.23661E-04 19048   0.958E-02    0.814E-02
RMM:   4    -0.398531872702E+02    0.86973E-04   -0.88111E-05 14990   0.551E-02    0.155E-02
RMM:   5    -0.398531878122E+02   -0.54202E-06   -0.13250E-05 14136   0.237E-02    0.787E-03
RMM:   6    -0.398531884090E+02   -0.59676E-06   -0.30358E-08  6598   0.934E-03
  10 F= -.39853188E+02 E0= -.39853188E+02  d E =-.601767E-02  mag=     0.0000
